/*--------------------------------*- C++ -*----------------------------------*\
  =========                 |
  \\      /  F ield         | OpenFOAM: The Open Source CFD Toolbox
   \\    /   O peration     | Website:  https://openfoam.org
    \\  /    A nd           | Version:  11
     \\/     M anipulation  |
\*---------------------------------------------------------------------------*/
FoamFile
{
    format      ascii;
    class       volScalarField;
    location    "0.5";
    object      p;
}
// * * * * * * * * * * * * * * * * * * * * * * * * * * * * * * * * * * * * * //

dimensions      [0 2 -2 0 0 0 0];

internalField   nonuniform List<scalar> 
400
(
3.07819e-09
-0.000403958
-0.000458928
-0.000174945
0.000450892
0.00139829
0.0026309
0.00410563
0.00577352
0.00757879
0.00945874
0.0113443
0.0131615
0.0148331
0.0162815
0.0174315
0.0182176
0.0186004
0.01858
0.0181531
0.000397567
-1.79923e-05
-2.65678e-05
0.000277612
0.000880964
0.00177704
0.00294046
0.00433448
0.00591429
0.00762718
0.00941305
0.0112055
0.0129332
0.014522
0.0158987
0.0169949
0.017756
0.0181574
0.0181825
0.0177422
0.000466934
-3.73945e-05
-5.84518e-05
0.000246544
0.000845988
0.00173516
0.00289114
0.00427914
0.00585593
0.00756995
0.00936171
0.0111647
0.0129068
0.0145128
0.0159075
0.0170203
0.0177951
0.0182057
0.0182168
0.0176772
0.00019978
-0.00039771
-0.000442656
-0.000136377
0.000476031
0.00138862
0.00257828
0.00401037
0.00564194
0.00742127
0.00928804
0.0111739
0.0130037
0.0146978
0.016175
0.017357
0.01818
0.0186112
0.0186
0.0179528
-0.000440439
-0.0011218
-0.00118638
-0.000868751
-0.000223468
0.00074228
0.0020044
0.00352753
0.00526802
0.00717305
0.00918027
0.0112183
0.0132066
0.0150582
0.016682
0.0179879
0.0188989
0.019373
0.0193474
0.0185957
-0.00148568
-0.00225647
-0.00233673
-0.00199422
-0.00129273
-0.000240952
0.00113543
0.00279964
0.00470669
0.00680195
0.00902033
0.0112862
0.013512
0.0156007
0.0174471
0.0189431
0.0199931
0.0205404
0.0205085
0.0196358
-0.00297302
-0.00385121
-0.00394453
-0.00356168
-0.00277837
-0.00160549
-7.10058e-05
0.00178633
0.00391991
0.00627315
0.00877796
0.0113542
0.0139063
0.0163243
0.0184847
0.0202544
0.0215098
0.0221717
0.0221421
0.0211133
-0.00495711
-0.00597007
-0.00607448
-0.00563375
-0.00474044
-0.00340903
-0.00167061
0.000433704
0.00285574
0.0055374
0.00840825
0.0113846
0.0143625
0.0172185
0.0198057
0.0219573
0.0235087
0.024344
0.0243299
0.0230895
-0.00751514
-0.00869983
-0.00881299
-0.00829323
-0.0072577
-0.00572676
-0.0037358
-0.00132866
0.00144533
0.00452775
0.00784733
0.0113203
0.014836
0.0182578
0.0214126
0.0240897
0.026065
0.027163
0.0271876
0.0256526
-0.0107519
-0.0121572
-0.0122741
-0.0116471
-0.0104302
-0.00865293
-0.00635673
-0.00358866
-0.000398593
0.00315618
0.00700601
0.0110774
0.0152531
0.0193893
0.0232875
0.0266831
0.0292685
0.0307714
0.0308818
0.0289266
-0.0148095
-0.0164999
-0.0166078
-0.015832
-0.0143822
-0.0123024
-0.00964174
-0.00645154
-0.00278188
0.00131528
0.0057834
0.0105402
0.0154988
0.0205142
0.0253693
0.0297424
0.0332146
0.0353595
0.035657
0.0330945
-0.0198873
-0.0219458
-0.0220132
-0.0210216
-0.0192663
-0.0168114
-0.0137163
-0.0100377
-0.00582624
-0.00112788
0.00401343
0.00954478
0.0153989
0.0214592
0.0275169
0.0332067
0.0379786
0.0411736
0.0418829
0.0384582
-0.0262834
-0.0288053
-0.0287574
-0.027436
-0.0252659
-0.0223361
-0.0187173
-0.014474
-0.00965861
-0.00431044
0.00154559
0.00789162
0.0147084
0.0219442
0.02945
0.036872
0.0435503
0.0485064
0.0501262
0.0455997
-0.0344848
-0.0375354
-0.037201
-0.0353507
-0.0325957
-0.0290454
-0.0247796
-0.0198743
-0.0143884
-0.00835702
-0.00178428
0.00535775
0.0131162
0.0215557
0.0306738
0.0402605
0.0496866
0.057631
0.0612615
0.0558008
-0.0453702
-0.0488231
-0.0478193
-0.0450941
-0.0414851
-0.0370927
-0.031997
-0.0262912
-0.0200491
-0.0133087
-0.00605605
0.00178854
0.0103225
0.0197922
0.0304444
0.0424497
0.0556033
0.068519
0.0765555
0.0719411
-0.0607043
-0.0637184
-0.0611749
-0.0569781
-0.0520852
-0.0465023
-0.040295
-0.0335815
-0.0264593
-0.0189764
-0.0111127
-0.00276733
0.00627975
0.0163463
0.0280274
0.0421618
0.0597033
0.0802533
0.0973725
0.0993532
-0.0844175
-0.0837824
-0.077704
-0.0709819
-0.064102
-0.0567893
-0.0490695
-0.0410823
-0.0329363
-0.0246756
-0.0162709
-0.00760087
0.00160833
0.0117567
0.023741
0.0391882
0.0609449
0.0916794
0.124846
0.145607
-0.125223
-0.110042
-0.0968575
-0.0857704
-0.0758035
-0.0661284
-0.0565714
-0.0471919
-0.0380319
-0.0290719
-0.0202291
-0.0113458
-0.00212933
0.00804135
0.0202952
0.0370875
0.0629468
0.106258
0.16262
0.22876
-0.200977
-0.135918
-0.112712
-0.0949721
-0.0813859
-0.0698261
-0.0592208
-0.049227
-0.0397133
-0.0305691
-0.0216501
-0.0127392
-0.00345649
0.007047
0.0203897
0.0402728
0.0742399
0.135503
0.229047
0.405463
-0.402514
-0.153575
-0.0952071
-0.0772646
-0.0664449
-0.0579601
-0.0503826
-0.0428874
-0.0352297
-0.0274207
-0.0194578
-0.0112123
-0.00234365
0.00793587
0.0218048
0.0442394
0.0863073
0.174162
0.342517
0.714755
)
;

boundaryField
{
    movingWall
    {
        type            zeroGradient;
    }
    fixedWalls
    {
        type            zeroGradient;
    }
    frontAndBack
    {
        type            empty;
    }
}


// ************************************************************************* //
