/*--------------------------------*- C++ -*----------------------------------*\
  =========                 |
  \\      /  F ield         | OpenFOAM: The Open Source CFD Toolbox
   \\    /   O peration     | Website:  https://openfoam.org
    \\  /    A nd           | Version:  11
     \\/     M anipulation  |
\*---------------------------------------------------------------------------*/
FoamFile
{
    format      ascii;
    class       surfaceScalarField;
    location    "0.5";
    object      phi;
}
// * * * * * * * * * * * * * * * * * * * * * * * * * * * * * * * * * * * * * //

dimensions      [0 3 -1 0 0 0 0];

internalField   nonuniform List<scalar> 
760
(
-1.45252e-06
1.45252e-06
-6.99974e-06
5.54721e-06
-1.45599e-05
7.56012e-06
-2.24741e-05
7.91423e-06
-2.99125e-05
7.43838e-06
-3.64741e-05
6.56167e-06
-4.19279e-05
5.45377e-06
-4.61068e-05
4.17891e-06
-4.88757e-05
2.76889e-06
-5.01262e-05
1.25053e-06
-4.97802e-05
-3.45984e-07
-4.77957e-05
-1.98451e-06
-4.41752e-05
-3.62055e-06
-3.89761e-05
-5.19908e-06
-3.23306e-05
-6.64551e-06
-2.44925e-05
-7.83813e-06
-1.59545e-05
-8.53795e-06
-7.70942e-06
-8.24511e-06
-1.63044e-06
-6.07898e-06
-1.63045e-06
-5.58955e-06
7.04207e-06
-1.82908e-05
1.82485e-05
-3.41674e-05
2.34367e-05
-5.05662e-05
2.4313e-05
-6.59754e-05
2.28475e-05
-7.95598e-05
2.01461e-05
-9.08066e-05
1.67007e-05
-9.93536e-05
1.27258e-05
-0.000104925
8.3405e-06
-0.000107316
3.64116e-06
-0.000106391
-1.27095e-06
-0.000102092
-6.28329e-06
-9.44554e-05
-1.12572e-05
-8.36315e-05
-1.6023e-05
-6.99266e-05
-2.03504e-05
-5.38892e-05
-2.38756e-05
-3.64999e-05
-2.59272e-05
-1.95259e-05
-2.52192e-05
-5.94511e-06
-1.96597e-05
-7.57554e-06
-8.08284e-06
1.51249e-05
-2.49749e-05
3.51406e-05
-4.55101e-05
4.39718e-05
-6.64854e-05
4.52883e-05
-8.61021e-05
4.24643e-05
-0.000103349
3.73928e-05
-0.000117593
3.09444e-05
-0.000128386
2.35187e-05
-0.000135391
1.53464e-05
-0.000138364
6.61329e-06
-0.000137141
-2.49374e-06
-0.000131656
-1.17679e-05
-0.000121955
-2.09588e-05
-0.000108221
-2.97568e-05
-9.0831e-05
-3.77401e-05
-7.04569e-05
-4.42497e-05
-4.82837e-05
-4.81003e-05
-2.64224e-05
-4.70805e-05
-8.48015e-06
-3.7602e-05
-1.60557e-05
-9.43679e-06
2.45617e-05
-2.89915e-05
5.46953e-05
-5.25389e-05
6.75193e-05
-7.6427e-05
6.91764e-05
-9.86737e-05
6.4711e-05
-0.000118185
5.69045e-05
-0.000134283
4.70424e-05
-0.000146489
3.57246e-05
-0.000154444
2.33008e-05
-0.000157878
1.00479e-05
-0.000156609
-3.76281e-06
-0.000150544
-1.78329e-05
-0.000139704
-3.17991e-05
-0.000124256
-4.52045e-05
-0.00010458
-5.74159e-05
-8.13914e-05
-6.74388e-05
-5.59945e-05
-7.34972e-05
-3.07703e-05
-7.23046e-05
-9.90113e-06
-5.84712e-05
-2.59568e-05
-1.04868e-05
3.50485e-05
-3.23096e-05
7.6518e-05
-5.85061e-05
9.37158e-05
-8.49724e-05
9.56427e-05
-0.00010954
8.92784e-05
-0.000131047
7.84122e-05
-0.000148795
6.47897e-05
-0.000162296
4.92257e-05
-0.000171184
3.2189e-05
-0.000175176
1.40396e-05
-0.000174058
-4.88068e-06
-0.000167691
-2.42002e-05
-0.000156036
-4.34537e-05
-0.0001392
-6.20402e-05
-0.000117519
-7.90967e-05
-9.17189e-05
-9.32393e-05
-6.32257e-05
-0.00010199
-3.47453e-05
-0.000100785
-1.11199e-05
-8.20966e-05
-3.70767e-05
-1.16813e-05
4.67299e-05
-3.60658e-05
0.000100903
-6.5271e-05
0.000122921
-9.46699e-05
0.000125042
-0.00012187
0.000116478
-0.000145636
0.000102178
-0.000165257
8.44105e-05
-0.000180256
6.42249e-05
-0.000190273
4.22068e-05
-0.000195016
1.8782e-05
-0.000194233
-5.66327e-06
-0.000187714
-3.07194e-05
-0.000175322
-5.58455e-05
-0.000157051
-8.03117e-05
-0.000133139
-0.000103009
-0.000104289
-0.000122089
-7.20683e-05
-0.000134211
-3.96127e-05
-0.000133241
-1.2619e-05
-0.00010909
-4.96958e-05
-1.32301e-05
5.99599e-05
-4.08424e-05
0.000128515
-7.37943e-05
0.000155873
-0.000106808
0.000158055
-0.000137216
0.000146886
-0.000163707
0.00012867
-0.000185579
0.000106283
-0.000202392
8.10375e-05
-0.000213815
5.36302e-05
-0.000219558
2.45251e-05
-0.000219332
-5.88934e-06
-0.000212826
-3.72255e-05
-0.000199757
-6.89145e-05
-0.000179932
-0.000100137
-0.000153407
-0.000129533
-0.000120796
-0.000154701
-8.38062e-05
-0.000171201
-4.61371e-05
-0.00017091
-1.46548e-05
-0.000140573
-6.43506e-05
-1.52637e-05
7.52236e-05
-4.70181e-05
0.000160269
-8.46911e-05
0.000193546
-0.000122172
0.000195536
-0.000156468
0.000181182
-0.000186204
0.000158406
-0.000210728
0.000130806
-0.000229682
9.99912e-05
-0.000242809
6.67569e-05
-0.000249848
3.15648e-05
-0.000250481
-5.25622e-06
-0.000244267
-4.344e-05
-0.000230714
-8.24675e-05
-0.000209336
-0.000121515
-0.00017987
-0.000158999
-0.000142699
-0.000191872
-9.96159e-05
-0.000214284
-5.50325e-05
-0.000215493
-1.74527e-05
-0.000178152
-8.18033e-05
-1.79252e-05
9.31489e-05
-5.49909e-05
0.000197335
-9.85747e-05
0.00023713
-0.000141496
0.000238458
-0.000180388
0.000220074
-0.000213857
0.000191874
-0.000241374
0.000158323
-0.000262745
0.000121362
-0.000277855
8.18674e-05
-0.000286526
4.02358e-05
-0.000288443
-3.33934e-06
-0.000282995
-4.88883e-05
-0.000269419
-9.60434e-05
-0.000246788
-0.000144146
-0.000214291
-0.000191495
-0.000171823
-0.00023434
-0.000121083
-0.000265024
-6.73171e-05
-0.000269259
-2.13487e-05
-0.000224121
-0.000103152
-2.14339e-05
0.000114583
-6.53269e-05
0.000241228
-0.000116265
0.000288068
-0.000165696
0.000287889
-0.000209857
0.000264235
-0.00024743
0.000229447
-0.000278139
0.000189032
-0.000302078
0.000145302
-0.000319385
9.91739e-05
-0.000330034
5.08843e-05
-0.000333819
4.46323e-07
-0.000329885
-5.28227e-05
-0.000317175
-0.000108753
-0.000294119
-0.000167202
-0.000259025
-0.00022659
-0.000210833
-0.000282532
-0.000150712
-0.000325145
-8.47263e-05
-0.000335245
-2.69693e-05
-0.000281878
-0.000130121
-2.61649e-05
0.000140748
-7.89198e-05
0.000293983
-0.000138975
0.000348123
-0.000196042
0.000344956
-0.000246008
0.0003142
-0.000287814
0.000271253
-0.000321643
0.000222862
-0.000348068
0.000171726
-0.000367637
0.000118744
-0.000380645
6.38923e-05
-0.000386868
6.66867e-06
-0.000385624
-5.40662e-05
-0.000375302
-0.000119076
-0.000353519
-0.000188985
-0.000317249
-0.000262859
-0.000263714
-0.000336067
-0.000192625
-0.000396235
-0.000110402
-0.000417467
-3.55919e-05
-0.000356688
-0.000165713
-3.27934e-05
0.000173541
-9.72312e-05
0.000358421
-0.000168537
0.000419429
-0.000234309
0.000410728
-0.000290283
0.000370174
-0.000335995
0.000316965
-0.000372398
0.000259265
-0.000400798
0.000200126
-0.000422368
0.000140313
-0.000437873
7.93982e-05
-0.000447411
1.62058e-05
-0.000450326
-5.11509e-05
-0.000444691
-0.000124711
-0.000427163
-0.000206513
-0.000392858
-0.000297164
-0.000336128
-0.000392797
-0.000253447
-0.000478917
-0.000150049
-0.000520865
-4.99028e-05
-0.000456834
-0.000215616
-4.25773e-05
0.000216118
-0.000122672
0.000438515
-0.000207668
0.000504425
-0.00028284
0.0004859
-0.000344293
0.000431627
-0.00039273
0.000365403
-0.000430327
0.000296862
-0.000459455
0.000229255
-0.000482168
0.000163026
-0.000499932
9.71624e-05
-0.000513392
2.96655e-05
-0.000522178
-4.23647e-05
-0.000524322
-0.000122567
-0.000515646
-0.000215189
-0.000489054
-0.000323756
-0.000434614
-0.000447237
-0.00034259
-0.000570941
-0.000213273
-0.000650181
-7.53357e-05
-0.000594771
-0.000290952
-5.78827e-05
0.000274001
-0.000159088
0.00053972
-0.000259997
0.000605335
-0.000344011
0.000569914
-0.000408776
0.000496391
-0.000457093
0.00041372
-0.000492973
0.000332742
-0.000520241
0.000256522
-0.000542077
0.000184862
-0.000560865
0.00011595
-0.000578052
4.68522e-05
-0.000593935
-2.64816e-05
-0.000607082
-0.00010942
-0.00061311
-0.00020916
-0.000603004
-0.000333863
-0.000561507
-0.000488734
-0.000468778
-0.00066367
-0.000312935
-0.000806024
-0.000121453
-0.000786254
-0.000412405
-8.30392e-05
0.00035704
-0.00021187
0.000668551
-0.000328638
0.000722103
-0.000417285
0.000658561
-0.000479377
0.000558483
-0.000521258
0.000455601
-0.000549534
0.000361018
-0.000569822
0.000276811
-0.000586552
0.000201592
-0.000603073
0.000132472
-0.000621764
6.55432e-05
-0.000643874
-4.37174e-06
-0.000669437
-8.38578e-05
-0.000695092
-0.000183504
-0.000711569
-0.000317386
-0.000699199
-0.000501103
-0.000625339
-0.00073753
-0.000455783
-0.00097558
-0.000200136
-0.0010419
-0.000612541
-0.000125279
0.000482319
-0.000285559
0.00082883
-0.000409113
0.000845657
-0.000488187
0.000737635
-0.000532733
0.000603029
-0.000554647
0.000477515
-0.000563804
0.000370174
-0.000567584
0.000280591
-0.000571308
0.000205317
-0.000578857
0.000140021
-0.00059323
7.99158e-05
-0.00061653
1.89277e-05
-0.000650765
-4.96222e-05
-0.000695327
-0.000138942
-0.000744048
-0.000268665
-0.000778029
-0.000467122
-0.000755503
-0.000760057
-0.000612878
-0.00111821
-0.000312161
-0.00134262
-0.000924703
-0.000194179
0.000676499
-0.000370525
0.00100518
-0.000463942
0.000939075
-0.000495112
0.000768805
-0.000489297
0.000597215
-0.000465425
0.000453643
-0.000435863
0.000340613
-0.000408266
0.000252994
-0.00038727
0.000184321
-0.000375866
0.000128616
-0.000376391
8.0441e-05
-0.000391545
3.40818e-05
-0.000423761
-1.7406e-05
-0.000476764
-8.59395e-05
-0.000551231
-0.000194198
-0.000639215
-0.000379138
-0.000706313
-0.000692959
-0.000669243
-0.00115528
-0.000419565
-0.00159229
-0.00134427
-0.000289024
0.000965522
-0.000383288
0.00109944
-0.000346997
0.000902784
-0.000250927
0.000672734
-0.000140681
0.000486969
-3.63823e-05
0.000349344
5.358e-05
0.00025065
0.000126296
0.000180278
0.000181384
0.000129232
0.000219276
9.07243e-05
0.000240073
5.96442e-05
0.000242605
3.15496e-05
0.000224038
1.16103e-06
0.000178021
-3.99226e-05
9.38271e-05
-0.000110004
-3.85115e-05
-0.000246799
-0.000217461
-0.00051401
-0.000384614
-0.000988122
-0.000378142
-0.00159877
-0.00172241
-0.000219599
0.00118512
9.56808e-06
0.000870273
0.000366828
0.000545524
0.000675125
0.000364438
0.000920057
0.000242037
0.00110946
0.000159941
0.00125326
0.000106851
0.00136078
7.27583e-05
0.00143969
5.03186e-05
0.00149562
3.48002e-05
0.00153208
2.31857e-05
0.00155032
1.33084e-05
0.00154819
3.28879e-06
0.00152004
-1.17765e-05
0.00144858
-3.85427e-05
0.00129967
-9.78916e-05
0.00102078
-0.00023512
0.000582686
-0.000550023
0.000129716
-0.0011458
-0.00159269
0.00118512
0.00205539
0.00260092
0.00296536
0.00320739
0.00336733
0.00347418
0.00354694
0.00359726
0.00363206
0.00365525
0.00366856
0.00367184
0.00366007
0.00362152
0.00352363
0.00328851
0.00273849
0.00159269
)
;

boundaryField
{
    movingWall
    {
        type            calculated;
        value           uniform 0;
    }
    fixedWalls
    {
        type            calculated;
        value           uniform 0;
    }
    frontAndBack
    {
        type            empty;
    }
}


// ************************************************************************* //
