/*--------------------------------*- C++ -*----------------------------------*\
  =========                 |
  \\      /  F ield         | OpenFOAM: The Open Source CFD Toolbox
   \\    /   O peration     | Website:  https://openfoam.org
    \\  /    A nd           | Version:  11
     \\/     M anipulation  |
\*---------------------------------------------------------------------------*/
FoamFile
{
    format      ascii;
    class       volVectorField;
    location    "0.5";
    object      U;
}
// * * * * * * * * * * * * * * * * * * * * * * * * * * * * * * * * * * * * * //

dimensions      [0 1 -1 0 0 0 0];

internalField   nonuniform List<vector> 
400
(
(-2.20554e-05 2.34191e-05 0)
(-0.000679795 0.000356836 0)
(-0.00211076 0.000529666 0)
(-0.00371098 0.000561538 0)
(-0.00526723 0.000527914 0)
(-0.00667901 0.000466117 0)
(-0.00788842 0.000389125 0)
(-0.00885746 0.000300882 0)
(-0.00955666 0.000202924 0)
(-0.00996177 9.66546e-05 0)
(-0.010054 -1.6061e-05 0)
(-0.00982122 -0.000132818 0)
(-0.00925908 -0.0002505 0)
(-0.00837308 -0.000365251 0)
(-0.00718099 -0.000471829 0)
(-0.00571926 -0.000561309 0)
(-0.00405718 -0.000614694 0)
(-0.00232005 -0.000588421 0)
(-0.000756452 -0.000402221 0)
(-3.00718e-05 -3.7713e-05 0)
(-0.000355645 0.00067579 0)
(-0.00210086 0.00207665 0)
(-0.00515862 0.00275134 0)
(-0.00849669 0.00287139 0)
(-0.0117234 0.00270079 0)
(-0.0146488 0.0023835 0)
(-0.0171501 0.00197985 0)
(-0.0191426 0.00151427 0)
(-0.0205641 0.000999543 0)
(-0.0213669 0.000446239 0)
(-0.0215169 -0.000134218 0)
(-0.0209943 -0.000728347 0)
(-0.0197963 -0.00131988 0)
(-0.0179403 -0.00188861 0)
(-0.0154698 -0.00240724 0)
(-0.0124665 -0.00283187 0)
(-0.00907147 -0.00307886 0)
(-0.0055136 -0.00298075 0)
(-0.00224118 -0.00225728 0)
(-0.000376611 -0.000741223 0)
(-0.000558938 0.00214085 0)
(-0.00295457 0.00518216 0)
(-0.00694642 0.00655851 0)
(-0.0112364 0.00677997 0)
(-0.0153524 0.00636648 0)
(-0.0190717 0.00561144 0)
(-0.0222437 0.00464841 0)
(-0.024764 0.00353753 0)
(-0.0265559 0.00231297 0)
(-0.0275617 0.00100247 0)
(-0.0277408 -0.000365749 0)
(-0.0270697 -0.00175966 0)
(-0.0255455 -0.00314127 0)
(-0.0231894 -0.00446335 0)
(-0.0200548 -0.00566204 0)
(-0.016242 -0.00663733 0)
(-0.0119223 -0.00720773 0)
(-0.00736595 -0.00703179 0)
(-0.00311544 -0.0055574 0)
(-0.000580606 -0.00228314 0)
(-0.000657242 0.00392424 0)
(-0.00344296 0.00888612 0)
(-0.00804274 0.0110339 0)
(-0.0129443 0.011334 0)
(-0.0176204 0.0106163 0)
(-0.0218319 0.0093432 0)
(-0.0254177 0.00772817 0)
(-0.0282659 0.00587051 0)
(-0.0302949 0.00382811 0)
(-0.0314427 0.00164739 0)
(-0.0316643 -0.00062552 0)
(-0.0309315 -0.00293934 0)
(-0.0292361 -0.00523289 0)
(-0.0265949 -0.00742944 0)
(-0.0230591 -0.00942428 0)
(-0.0187329 -0.0110541 0)
(-0.0138013 -0.0120268 0)
(-0.00856273 -0.0118009 0)
(-0.00363604 -0.00949255 0)
(-0.000679981 -0.00415079 0)
(-0.000726621 0.00591626 0)
(-0.00383301 0.0130208 0)
(-0.00896315 0.0160029 0)
(-0.0144055 0.0163637 0)
(-0.0195765 0.015293 0)
(-0.0242214 0.0134414 0)
(-0.0281723 0.0111094 0)
(-0.0313151 0.00843775 0)
(-0.0335672 0.00550811 0)
(-0.034865 0.0023847 0)
(-0.0351588 -0.000870238 0)
(-0.0344131 -0.00418818 0)
(-0.0326085 -0.00748626 0)
(-0.0297494 -0.0106581 0)
(-0.025875 -0.0135548 0)
(-0.021085 -0.0159413 0)
(-0.0155743 -0.0173985 0)
(-0.00967492 -0.0171522 0)
(-0.0040965 -0.0139275 0)
(-0.000756821 -0.00624797 0)
(-0.000806273 0.00812265 0)
(-0.0042754 0.0176182 0)
(-0.0100059 0.0215159 0)
(-0.0160633 0.0219245 0)
(-0.0217965 0.0204477 0)
(-0.0269318 0.017951 0)
(-0.0312956 0.0148321 0)
(-0.034775 0.0112763 0)
(-0.0372897 0.00738924 0)
(-0.0387762 0.00325015 0)
(-0.0391808 -0.00106661 0)
(-0.0384568 -0.00547995 0)
(-0.036568 -0.00988925 0)
(-0.0334962 -0.0141598 0)
(-0.0292582 -0.0180951 0)
(-0.0239387 -0.0213758 0)
(-0.0177399 -0.0234284 0)
(-0.0110375 -0.0231993 0)
(-0.00466183 -0.0189496 0)
(-0.000851911 -0.00860489 0)
(-0.000912707 0.0105977 0)
(-0.0048442 0.0227842 0)
(-0.0113259 0.0276941 0)
(-0.0181454 0.0281321 0)
(-0.0245677 0.0261813 0)
(-0.0302969 0.0229558 0)
(-0.035157 0.0189655 0)
(-0.0390409 0.014445 0)
(-0.0418763 0.00952284 0)
(-0.0436038 0.00428922 0)
(-0.0441668 -0.00117627 0)
(-0.043505 -0.00678848 0)
(-0.041557 -0.0124365 0)
(-0.0382702 -0.0179622 0)
(-0.033622 -0.0231184 0)
(-0.027666 -0.0274847 0)
(-0.0206018 -0.0302949 0)
(-0.0128573 -0.0301466 0)
(-0.00542608 -0.0247392 0)
(-0.000983599 -0.0113066 0)
(-0.0010555 0.0134259 0)
(-0.00558694 0.0286777 0)
(-0.0130243 0.0347105 0)
(-0.0207955 0.0351425 0)
(-0.0280605 0.0326223 0)
(-0.0345021 0.028558 0)
(-0.0399482 0.0235907 0)
(-0.0443071 0.0180106 0)
(-0.0475241 0.0119677 0)
(-0.0495512 0.00555655 0)
(-0.0503328 -0.00114848 0)
(-0.0497931 -0.00807263 0)
(-0.0478366 -0.0151076 0)
(-0.0443598 -0.0220827 0)
(-0.039275 -0.0287015 0)
(-0.0325747 -0.0344232 0)
(-0.0244327 -0.038235 0)
(-0.0153286 -0.0382847 0)
(-0.00647556 -0.0315639 0)
(-0.00116625 -0.0144807 0)
(-0.00124564 0.016717 0)
(-0.00655505 0.0355049 0)
(-0.0152054 0.0427808 0)
(-0.0241529 0.0431397 0)
(-0.0324282 0.0399126 0)
(-0.0396986 0.0348616 0)
(-0.0458096 0.0287852 0)
(-0.0507019 0.0220363 0)
(-0.0543531 0.0147834 0)
(-0.0567395 0.00711567 0)
(-0.0578155 -0.000912853 0)
(-0.0574898 -0.00926078 0)
(-0.0556231 -0.0178431 0)
(-0.0520401 -0.0264993 0)
(-0.0465504 -0.0348949 0)
(-0.0390341 -0.0423513 0)
(-0.0295884 -0.0475381 0)
(-0.0187227 -0.0480028 0)
(-0.00793761 -0.0398015 0)
(-0.0014224 -0.0183062 0)
(-0.00150159 0.0206147 0)
(-0.00782534 0.0435298 0)
(-0.0180139 0.0521667 0)
(-0.0283985 0.0523296 0)
(-0.0378556 0.048194 0)
(-0.0460533 0.0419575 0)
(-0.0528802 0.0346078 0)
(-0.0583353 0.0265687 0)
(-0.0624525 0.0180219 0)
(-0.0652512 0.00903523 0)
(-0.0667133 -0.000382884 0)
(-0.066736 -0.0102354 0)
(-0.0651285 -0.020516 0)
(-0.061622 -0.0311112 0)
(-0.0558708 -0.0416785 0)
(-0.0475605 -0.0513985 0)
(-0.036611 -0.0585374 0)
(-0.023487 -0.0598204 0)
(-0.0100421 -0.0499974 0)
(-0.00179905 -0.0230495 0)
(-0.00185777 0.0253189 0)
(-0.00952511 0.0530997 0)
(-0.0216711 0.0631869 0)
(-0.0337917 0.0629353 0)
(-0.0445901 0.0575941 0)
(-0.0537715 0.0499032 0)
(-0.0613107 0.0410782 0)
(-0.0673048 0.0316204 0)
(-0.0718803 0.0217154 0)
(-0.0751309 0.0113906 0)
(-0.0770708 0.000582316 0)
(-0.0776162 -0.010808 0)
(-0.0765421 -0.0228953 0)
(-0.0734474 -0.0356829 0)
(-0.0677722 -0.0488913 0)
(-0.0588869 -0.0615957 0)
(-0.0463516 -0.0715802 0)
(-0.0303961 -0.0744323 0)
(-0.0132378 -0.0629764 0)
(-0.00240484 -0.0291497 0)
(-0.00238192 0.0311287 0)
(-0.0118751 0.0646892 0)
(-0.0265257 0.0762315 0)
(-0.0407104 0.0751855 0)
(-0.0529629 0.0681993 0)
(-0.0630992 0.0586916 0)
(-0.0712493 0.048146 0)
(-0.077666 0.0371417 0)
(-0.0826137 0.0258521 0)
(-0.0862965 0.0142403 0)
(-0.0888095 0.00213814 0)
(-0.0901079 -0.0107145 0)
(-0.089945 -0.0246075 0)
(-0.0878025 -0.0397676 0)
(-0.0828488 -0.0561139 0)
(-0.0739808 -0.0727399 0)
(-0.0600956 -0.0869338 0)
(-0.0407751 -0.0927421 0)
(-0.0184189 -0.0800329 0)
(-0.0034983 -0.0374092 0)
(-0.00321252 0.0385265 0)
(-0.0152671 0.078965 0)
(-0.0331252 0.0917682 0)
(-0.0496857 0.0892797 0)
(-0.0633799 0.080003 0)
(-0.074274 0.0681955 0)
(-0.0827601 0.0556382 0)
(-0.0893234 0.0429733 0)
(-0.0944227 0.0303342 0)
(-0.0984189 0.0175872 0)
(-0.101532 0.00441905 0)
(-0.103804 -0.00962733 0)
(-0.105024 -0.0251107 0)
(-0.104606 -0.0426211 0)
(-0.101441 -0.0624992 0)
(-0.093803 -0.0841456 0)
(-0.0794926 -0.104537 0)
(-0.0566732 -0.115795 0)
(-0.0272795 -0.103209 0)
(-0.0056685 -0.0494055 0)
(-0.00463627 0.0483423 0)
(-0.0203931 0.0968679 0)
(-0.0422783 0.110304 0)
(-0.061352 0.10529 0)
(-0.0761615 0.0927925 0)
(-0.0872727 0.0780599 0)
(-0.0954957 0.0631632 0)
(-0.101642 0.0487614 0)
(-0.106422 0.0348997 0)
(-0.110398 0.0213084 0)
(-0.113956 0.00749804 0)
(-0.117286 -0.00722184 0)
(-0.120309 -0.0237407 0)
(-0.122503 -0.043175 0)
(-0.122601 -0.0666055 0)
(-0.118228 -0.0942749 0)
(-0.105632 -0.123464 0)
(-0.0804 -0.144339 0)
(-0.0425301 -0.135456 0)
(-0.0100931 -0.0682036 0)
(-0.00723219 0.0620803 0)
(-0.0284089 0.11967 0)
(-0.0549438 0.132201 0)
(-0.0760033 0.122892 0)
(-0.0908107 0.105877 0)
(-0.100853 0.0874596 0)
(-0.107567 0.069905 0)
(-0.112186 0.0537812 0)
(-0.115712 0.0389619 0)
(-0.118913 0.024991 0)
(-0.122357 0.011185 0)
(-0.126413 -0.0033795 0)
(-0.131255 -0.0199499 0)
(-0.136638 -0.0402592 0)
(-0.141457 -0.0664806 0)
(-0.143006 -0.100484 0)
(-0.135864 -0.141138 0)
(-0.111897 -0.177634 0)
(-0.0668217 -0.179913 0)
(-0.0185434 -0.0990117 0)
(-0.0120812 0.0824915 0)
(-0.0409409 0.148731 0)
(-0.0713064 0.156992 0)
(-0.0917402 0.140604 0)
(-0.103466 0.117409 0)
(-0.109534 0.0945514 0)
(-0.112224 0.0742014 0)
(-0.113227 0.0566123 0)
(-0.113777 0.0413411 0)
(-0.114765 0.0276772 0)
(-0.11685 0.0147448 0)
(-0.120541 0.00143426 0)
(-0.126288 -0.0138217 0)
(-0.134323 -0.0332927 0)
(-0.144224 -0.0604376 0)
(-0.153853 -0.0995445 0)
(-0.157022 -0.152996 0)
(-0.141903 -0.211698 0)
(-0.0978818 -0.237388 0)
(-0.0319218 -0.149231 0)
(-0.020828 0.114113 0)
(-0.0589743 0.183534 0)
(-0.0868033 0.181107 0)
(-0.0983977 0.153795 0)
(-0.0997 0.122903 0)
(-0.0959296 0.0954987 0)
(-0.0901269 0.0729577 0)
(-0.0841501 0.0548013 0)
(-0.0791406 0.0400565 0)
(-0.0758025 0.0276829 0)
(-0.0746326 0.0166345 0)
(-0.0761028 0.00573095 0)
(-0.0807495 -0.0066664 0)
(-0.0892421 -0.023154 0)
(-0.102283 -0.0481896 0)
(-0.119732 -0.0887019 0)
(-0.137195 -0.15241 0)
(-0.142017 -0.236745 0)
(-0.118958 -0.301056 0)
(-0.0454623 -0.227904 0)
(-0.0338986 0.16357 0)
(-0.0757366 0.214825 0)
(-0.0776972 0.191296 0)
(-0.0614693 0.150287 0)
(-0.0392096 0.112914 0)
(-0.0170701 0.0835041 0)
(0.00257525 0.0614237 0)
(0.0188714 0.0450029 0)
(0.0316166 0.0326219 0)
(0.0408752 0.0229509 0)
(0.0467314 0.0148951 0)
(0.0491103 0.00741271 0)
(0.047621 -0.000806312 0)
(0.0414317 -0.01208 0)
(0.0288997 -0.0307945 0)
(0.00719318 -0.065415 0)
(-0.0248723 -0.128905 0)
(-0.0602875 -0.231264 0)
(-0.0920432 -0.344969 0)
(-0.0411998 -0.330329 0)
(-0.0313991 0.249426 0)
(-0.0383601 0.220598 0)
(0.0398006 0.156628 0)
(0.106854 0.10945 0)
(0.162147 0.0754946 0)
(0.205348 0.0518253 0)
(0.238245 0.0358585 0)
(0.262953 0.0251415 0)
(0.281256 0.0177831 0)
(0.2945 0.0125009 0)
(0.30359 0.00843171 0)
(0.309001 0.00490999 0)
(0.310626 0.00125655 0)
(0.307787 -0.00364295 0)
(0.298232 -0.0124141 0)
(0.277063 -0.0312934 0)
(0.236078 -0.0733243 0)
(0.169567 -0.162582 0)
(0.0469214 -0.305829 0)
(0.0284082 -0.374994 0)
(0.24264 0.158883 0)
(0.31064 0.122477 0)
(0.463853 0.0772921 0)
(0.562098 0.0488694 0)
(0.621921 0.0306734 0)
(0.660451 0.018985 0)
(0.686106 0.0117533 0)
(0.70344 0.00740554 0)
(0.715324 0.0047918 0)
(0.723559 0.00317039 0)
(0.729189 0.00209086 0)
(0.732743 0.00126741 0)
(0.734308 0.000476979 0)
(0.733429 -0.000459811 0)
(0.728307 -0.00217994 0)
(0.715099 -0.0062834 0)
(0.682442 -0.0162305 0)
(0.617379 -0.0424214 0)
(0.433881 -0.109153 0)
(0.307812 -0.173666 0)
)
;

boundaryField
{
    movingWall
    {
        type            fixedValue;
        value           uniform (1 0 0);
    }
    fixedWalls
    {
        type            noSlip;
    }
    frontAndBack
    {
        type            empty;
    }
}


// ************************************************************************* //
