/*--------------------------------*- C++ -*----------------------------------*\
  =========                 |
  \\      /  F ield         | OpenFOAM: The Open Source CFD Toolbox
   \\    /   O peration     | Website:  https://openfoam.org
    \\  /    A nd           | Version:  11
     \\/     M anipulation  |
\*---------------------------------------------------------------------------*/
FoamFile
{
    format      ascii;
    class       volScalarField;
    location    "0.4";
    object      p;
}
// * * * * * * * * * * * * * * * * * * * * * * * * * * * * * * * * * * * * * //

dimensions      [0 2 -2 0 0 0 0];

internalField   nonuniform List<scalar> 
400
(
2.73892e-09
-0.00038327
-0.000358942
4.23225e-05
0.000808413
0.00191328
0.00331711
0.00497271
0.00682639
0.00881765
0.0108797
0.0129403
0.0149235
0.0167515
0.0183473
0.0196371
0.0205558
0.0210585
0.021126
0.0207296
0.000376655
-1.90005e-05
4.10982e-05
0.000451545
0.00119031
0.00224516
0.00358532
0.00516849
0.00694423
0.00885458
0.0108348
0.012815
0.0147212
0.0164779
0.0180111
0.0192517
0.0201433
0.0206551
0.0207578
0.0203468
0.000365734
-0.000107805
-5.80998e-05
0.000354511
0.00109389
0.00214976
0.00349311
0.00508274
0.006869
0.00879438
0.0107942
0.0127979
0.0147304
0.0165149
0.0180751
0.0193396
0.02025
0.0207745
0.0208683
0.0203717
-2.26416e-05
-0.000575194
-0.000541805
-0.000120081
0.00064297
0.00173601
0.00312928
0.00478089
0.00664057
0.00864976
0.0107422
0.012845
0.0148797
0.016765
0.0184189
0.019763
0.0207316
0.0212868
0.0213701
0.0207844
-0.00081309
-0.00143794
-0.0014146
-0.000969542
-0.000157847
0.0010077
0.00249558
0.00426209
0.00625509
0.00841381
0.0106691
0.0129443
0.0151554
0.0172139
0.0190287
0.02051
0.0215806
0.0221931
0.0222771
0.0216051
-0.00203783
-0.00274256
-0.00272349
-0.00223769
-0.0013489
-7.1949e-05
0.00155889
0.00349703
0.00568746
0.00806625
0.0105604
0.013088
0.0155581
0.0178721
0.019926
0.0216137
0.0228407
0.0235452
0.023642
0.0228691
-0.00373888
-0.0045415
-0.00452162
-0.0039753
-0.00297788
-0.00154733
0.000278156
0.00244806
0.00490371
0.00757743
0.0103919
0.0132595
0.0160807
0.0187449
0.0211308
0.0231102
0.0245629
0.0254052
0.0255291
0.0246263
-0.00597714
-0.00690344
-0.00687746
-0.00624775
-0.00510617
-0.00347565
-0.00139978
0.00106587
0.00385839
0.00690627
0.0101281
0.0134311
0.0167071
0.0198316
0.0226625
0.0250416
0.0268118
0.0278551
0.0280265
0.0269506
-0.00883687
-0.00992106
-0.00988227
-0.0091411
-0.00781367
-0.00593064
-0.00354312
-0.000712991
0.00249226
0.0059978
0.00971936
0.0135615
0.0174083
0.0211223
0.0245371
0.0274559
0.0296699
0.0310059
0.0312574
0.029946
-0.0124311
-0.0137183
-0.013656
-0.0127662
-0.0112013
-0.00900402
-0.00623593
-0.00296678
0.000731182
0.00478099
0.00909789
0.0135892
0.0181345
0.0225873
0.0267572
0.030401
0.0332371
0.0350059
0.0353945
0.0337565
-0.016912
-0.0184621
-0.0183561
-0.0172641
-0.0153939
-0.0128068
-0.0095783
-0.00578829
-0.00151395
0.00316749
0.00817382
0.0134258
0.018804
0.0241633
0.0292965
0.0339098
0.0376262
0.0400514
0.0406845
0.0385888
-0.0224911
-0.0243815
-0.0241909
-0.0228142
-0.0205444
-0.0174698
-0.0136849
-0.00928235
-0.00434479
0.00105406
0.00684707
0.0129512
0.0192896
0.0257316
0.0320708
0.0379724
0.0429464
0.0463972
0.0474897
0.0447625
-0.0294807
-0.0318016
-0.0314403
-0.0296439
-0.0268366
-0.0231425
-0.0186802
-0.0135592
-0.00786914
-0.00167909
0.00495978
0.0120017
0.019404
0.0270886
0.0348919
0.0424789
0.0492576
0.0543556
0.0563489
0.0528339
-0.0383824
-0.0411991
-0.0404834
-0.0380406
-0.0344871
-0.0299871
-0.0246871
-0.0187187
-0.0121805
-0.00513572
0.00238859
0.0103927
0.0188964
0.0279161
0.0374008
0.0471164
0.0564644
0.064261
0.0680822
0.0639274
-0.0500866
-0.05329
-0.0518278
-0.0483571
-0.0437372
-0.0381596
-0.0317997
-0.0248171
-0.0173228
-0.00937334
-0.000967289
0.0079508
0.0174773
0.0277744
0.038995
0.0511989
0.0640727
0.0763006
0.0839531
0.0805348
-0.0663667
-0.0691756
-0.0661137
-0.0609801
-0.054799
-0.047737
-0.0399985
-0.031777
-0.0231971
-0.0143046
-0.00506525
0.004645
0.0149536
0.0262238
0.0388682
0.0535143
0.0707403
0.0899003
0.105473
0.107489
-0.0911931
-0.090568
-0.0840153
-0.0761303
-0.0675954
-0.0584345
-0.048875
-0.0391362
-0.0293353
-0.0194852
-0.00951713
0.000722707
0.011551
0.0233167
0.0366417
0.0529932
0.0746038
0.103249
0.133295
0.151758
-0.133416
-0.118811
-0.105444
-0.0929136
-0.0807913
-0.0687812
-0.0570012
-0.0455866
-0.0345669
-0.0238519
-0.0133025
-0.00269578
0.00833636
0.0203621
0.0336973
0.0512435
0.0770087
0.117131
0.168786
0.229636
-0.211005
-0.147239
-0.124686
-0.105034
-0.088693
-0.0742034
-0.0609
-0.0485256
-0.0368995
-0.0258228
-0.0150764
-0.00439202
0.00660035
0.0187222
0.0330558
0.052958
0.0852096
0.142043
0.227985
0.39952
-0.414486
-0.167494
-0.109874
-0.0902949
-0.0765008
-0.0646858
-0.0539708
-0.0436921
-0.0335903
-0.023604
-0.0136525
-0.00355873
0.00700216
0.0186189
0.0332458
0.055212
0.094926
0.177912
0.339355
0.705783
)
;

boundaryField
{
    movingWall
    {
        type            zeroGradient;
    }
    fixedWalls
    {
        type            zeroGradient;
    }
    frontAndBack
    {
        type            empty;
    }
}


// ************************************************************************* //
