/*--------------------------------*- C++ -*----------------------------------*\
  =========                 |
  \\      /  F ield         | OpenFOAM: The Open Source CFD Toolbox
   \\    /   O peration     | Website:  https://openfoam.org
    \\  /    A nd           | Version:  11
     \\/     M anipulation  |
\*---------------------------------------------------------------------------*/
FoamFile
{
    format      ascii;
    class       surfaceScalarField;
    location    "0.4";
    object      phi;
}
// * * * * * * * * * * * * * * * * * * * * * * * * * * * * * * * * * * * * * //

dimensions      [0 3 -1 0 0 0 0];

internalField   nonuniform List<scalar> 
760
(
-1.89173e-06
1.89172e-06
-7.8415e-06
5.94977e-06
-1.54493e-05
7.60776e-06
-2.31598e-05
7.7105e-06
-3.02903e-05
7.13052e-06
-3.65231e-05
6.2328e-06
-4.16639e-05
5.14078e-06
-4.55656e-05
3.90172e-06
-4.81102e-05
2.54464e-06
-4.92074e-05
1.0972e-06
-4.87972e-05
-4.10238e-07
-4.68539e-05
-1.94326e-06
-4.33918e-05
-3.46208e-06
-3.84713e-05
-4.92058e-06
-3.22092e-05
-6.26207e-06
-2.4807e-05
-7.40221e-06
-1.6636e-05
-8.17098e-06
-8.48659e-06
-8.14945e-06
-2.07635e-06
-6.41024e-06
-2.07634e-06
-6.00823e-06
7.89995e-06
-1.87165e-05
1.86581e-05
-3.39323e-05
2.28236e-05
-4.9233e-05
2.30112e-05
-6.33904e-05
2.12879e-05
-7.57541e-05
1.85966e-05
-8.59137e-05
1.53003e-05
-9.35693e-05
1.15573e-05
-9.84934e-05
7.46877e-06
-0.000100522
3.1257e-06
-9.95552e-05
-1.37693e-06
-9.55618e-05
-5.93668e-06
-8.85891e-05
-1.04348e-05
-7.87758e-05
-1.47339e-05
-6.63751e-05
-1.86629e-05
-5.18077e-05
-2.19696e-05
-3.58059e-05
-2.41728e-05
-1.97613e-05
-2.4194e-05
-6.33539e-06
-1.98361e-05
-8.41173e-06
-8.16842e-06
1.60684e-05
-2.4403e-05
3.48927e-05
-4.3436e-05
4.18565e-05
-6.2419e-05
4.19942e-05
-7.99227e-05
3.87916e-05
-9.51756e-05
3.38495e-05
-0.000107684
2.78085e-05
-0.000117088
2.09614e-05
-0.000123119
1.34998e-05
-0.000125585
5.5918e-06
-0.00012437
-2.59237e-06
-0.000119437
-1.08697e-05
-0.000110841
-1.90305e-05
-9.87454e-05
-2.68293e-05
-8.34513e-05
-3.39569e-05
-6.54612e-05
-3.99596e-05
-4.56423e-05
-4.39917e-05
-2.56208e-05
-4.42156e-05
-8.53714e-06
-3.69198e-05
-1.69489e-05
-9.28321e-06
2.53516e-05
-2.76763e-05
5.32858e-05
-4.90954e-05
6.32756e-05
-7.03464e-05
6.32451e-05
-8.98748e-05
5.832e-05
-0.000106857
5.08313e-05
-0.000120769
4.17212e-05
-0.000131236
3.14278e-05
-0.000137973
2.02375e-05
-0.000140779
8.39704e-06
-0.00013952
-3.85072e-06
-0.000134145
-1.62449e-05
-0.00012469
-2.84859e-05
-0.000111303
-4.02164e-05
-9.42822e-05
-5.09774e-05
-7.41534e-05
-6.00884e-05
-5.18543e-05
-6.62908e-05
-2.91878e-05
-6.68821e-05
-9.72804e-06
-5.63796e-05
-2.66769e-05
-1.02259e-05
3.55775e-05
-3.05784e-05
7.36382e-05
-5.42247e-05
8.6922e-05
-7.76035e-05
8.66239e-05
-9.9022e-05
7.97385e-05
-0.00011761
6.94194e-05
-0.000132832
5.69435e-05
-0.000144311
4.29061e-05
-0.000151763
2.76894e-05
-0.000154977
1.16117e-05
-0.000153806
-5.0219e-06
-0.000148163
-2.18876e-05
-0.000138044
-3.86056e-05
-0.000123549
-5.47109e-05
-0.000104942
-6.95842e-05
-8.27462e-05
-8.22845e-05
-5.79699e-05
-9.10671e-05
-3.26368e-05
-9.22151e-05
-1.08315e-05
-7.81849e-05
-3.75084e-05
-1.13782e-05
4.69557e-05
-3.40758e-05
9.63358e-05
-6.03886e-05
0.000113235
-8.63099e-05
0.000112545
-0.000109973
0.000103402
-0.000130455
8.99018e-05
-0.000147219
7.37067e-05
-0.000159898
5.55855e-05
-0.000168224
3.60153e-05
-0.000171985
1.5373e-05
-0.000171012
-5.99527e-06
-0.000165171
-2.7729e-05
-0.000154386
-4.93903e-05
-0.000138677
-7.04198e-05
-0.000118231
-9.00299e-05
-9.35423e-05
-0.000106973
-6.56988e-05
-0.000118911
-3.70178e-05
-0.000120896
-1.22521e-05
-0.000102951
-4.97605e-05
-1.28987e-05
5.98544e-05
-3.86115e-05
0.000122049
-6.83102e-05
0.000142933
-9.74213e-05
0.000141656
-0.000123862
0.000129842
-0.000146657
0.000112697
-0.000165285
9.23345e-05
-0.000179419
6.97195e-05
-0.000188824
4.54203e-05
-0.000193303
1.98513e-05
-0.000192663
-6.63503e-06
-0.000186706
-3.36854e-05
-0.000175253
-6.08437e-05
-0.000158186
-8.74872e-05
-0.000135554
-0.000112662
-0.000107768
-0.000134759
-7.59864e-05
-0.000150692
-4.29057e-05
-0.000153977
-1.41864e-05
-0.00013167
-6.39468e-05
-1.48957e-05
7.47501e-05
-4.4495e-05
0.000151648
-7.84825e-05
0.000176921
-0.000111554
0.000174728
-0.000141369
0.000159657
-0.000166916
0.000138244
-0.000187728
0.000113146
-0.00020356
8.55519e-05
-0.000214252
5.61115e-05
-0.000219642
2.52419e-05
-0.000219528
-6.74946e-06
-0.000213625
-3.95877e-05
-0.000201604
-7.28653e-05
-0.000183132
-0.000105959
-0.000158019
-0.000137775
-0.000126487
-0.000166291
-8.97086e-05
-0.00018747
-5.08489e-05
-0.000192836
-1.68173e-05
-0.000165702
-8.07642e-05
-1.75045e-05
9.22546e-05
-5.20928e-05
0.000186236
-9.14604e-05
0.000216289
-0.00012936
0.000212628
-0.00016316
0.000193456
-0.000191856
0.00016694
-0.000215106
0.000136396
-0.000232821
0.000103267
-0.000244976
6.82663e-05
-0.000251494
3.17594e-05
-0.000252176
-6.06675e-06
-0.00024664
-4.51237e-05
-0.000234348
-8.5158e-05
-0.000214644
-0.000125663
-0.000186934
-0.000165484
-0.00015106
-0.000202166
-0.000108064
-0.000230466
-6.1639e-05
-0.000239262
-2.04224e-05
-0.000206918
-0.000101187
-2.09395e-05
0.000113194
-6.19493e-05
0.000227246
-0.000108025
0.000262364
-0.000151707
0.00025631
-0.000190063
0.000231812
-0.000222191
0.000199069
-0.000247996
0.000162201
-0.000267659
0.00012293
-0.000281382
8.19902e-05
-0.000289244
3.96207e-05
-0.000291095
-4.21571e-06
-0.000286443
-4.97756e-05
-0.000274486
-9.71147e-05
-0.000254105
-0.000146044
-0.000224056
-0.000195534
-0.000183465
-0.000242757
-0.000132922
-0.000281008
-7.65954e-05
-0.000295589
-2.54999e-05
-0.000258014
-0.000126687
-2.55666e-05
0.000138761
-7.49302e-05
0.00027661
-0.000129345
0.000316779
-0.000179818
0.000306783
-0.000223172
0.000275167
-0.000258792
0.000234689
-0.000287021
0.00019043
-0.000308478
0.000144387
-0.000323735
9.72475e-05
-0.000333122
4.90075e-05
-0.000336621
-7.17144e-07
-0.000333641
-5.27556e-05
-0.000323084
-0.000107671
-0.000303205
-0.000165923
-0.000271775
-0.000226963
-0.000226657
-0.000287875
-0.000167322
-0.000340343
-9.80529e-05
-0.000364858
-3.30252e-05
-0.000323041
-0.000159712
-3.20426e-05
0.000170803
-9.24596e-05
0.000337027
-0.000157213
0.000381532
-0.000215441
0.000365011
-0.000263934
0.00032366
-0.00030269
0.000273445
-0.000332791
0.00022053
-0.000355533
0.000167129
-0.000372039
0.000113754
-0.000383034
6.00023e-05
-0.000388715
4.96436e-06
-0.000388522
-5.29485e-05
-0.000381054
-0.00011514
-0.000363815
-0.000183162
-0.0003332
-0.000257578
-0.00028498
-0.000336095
-0.000216246
-0.000409076
-0.000130278
-0.000450827
-4.50284e-05
-0.000408291
-0.00020474
-4.15992e-05
0.000212402
-0.000116928
0.000412355
-0.000194366
0.00045897
-0.000261006
0.000431651
-0.000314139
0.000376793
-0.000354937
0.000314243
-0.000385662
0.000251255
-0.000408599
0.000190065
-0.000425635
0.00013079
-0.000438071
7.24389e-05
-0.000446429
1.33218e-05
-0.000450422
-4.8955e-05
-0.000448451
-0.000117111
-0.000437315
-0.000194298
-0.000411705
-0.000283187
-0.000364238
-0.000383563
-0.000287464
-0.00048585
-0.000180931
-0.00055736
-6.57938e-05
-0.000523428
-0.000270534
-5.66067e-05
0.000269009
-0.000152307
0.000508055
-0.000244758
0.000551422
-0.000319472
0.000506365
-0.000375393
0.000432714
-0.000415798
0.000354648
-0.000444722
0.00028018
-0.000465792
0.000211135
-0.000481874
0.000146872
-0.000494994
8.55581e-05
-0.00050625
2.45783e-05
-0.000515774
-3.94306e-05
-0.000522222
-0.000110664
-0.000522057
-0.000194463
-0.000508366
-0.000296878
-0.000469661
-0.000422268
-0.000390853
-0.000564658
-0.000262205
-0.000686008
-0.000103724
-0.000681909
-0.000374257
-8.1571e-05
0.00035058
-0.00020466
0.000631144
-0.000312841
0.000659603
-0.000392402
0.000585926
-0.000446264
0.000486576
-0.000481201
0.000389584
-0.000503746
0.000302725
-0.000519173
0.000226562
-0.000531419
0.000159118
-0.000543275
9.74141e-05
-0.000556529
3.78332e-05
-0.000572021
-2.39393e-05
-0.000589287
-9.33969e-05
-0.000605395
-0.000178355
-0.000612893
-0.000289381
-0.000596413
-0.000438748
-0.000530346
-0.000630725
-0.000386854
-0.0008295
-0.000171845
-0.000896919
-0.000546102
-0.000124354
0.000474934
-0.000280496
0.000787286
-0.000397826
0.000776933
-0.000470903
0.000659003
-0.000510829
0.000526503
-0.000529711
0.000408466
-0.000537164
0.000310178
-0.000540049
0.000229447
-0.000543063
0.000162131
-0.000549443
0.000103794
-0.000561469
4.98596e-05
-0.000580631
-4.77783e-06
-0.000608177
-6.58502e-05
-0.000643021
-0.000143512
-0.000679686
-0.000252716
-0.000702168
-0.000416266
-0.000675438
-0.000657454
-0.000545545
-0.000959392
-0.000278802
-0.00116366
-0.000824904
-0.00019552
0.000670454
-0.000373707
0.000965473
-0.000468874
0.0008721
-0.000503082
0.000693211
-0.000501882
0.000525303
-0.000483811
0.000390395
-0.00046072
0.000287086
-0.000439666
0.000208394
-0.000424716
0.000147181
-0.000418423
9.75011e-05
-0.000422708
5.41445e-05
-0.000439224
1.17378e-05
-0.000470601
-3.44731e-05
-0.000518804
-9.53089e-05
-0.000583664
-0.000187856
-0.000655895
-0.000344035
-0.000702753
-0.000610597
-0.000649843
-0.0010123
-0.000400632
-0.00141287
-0.00122554
-0.000294211
0.000964665
-0.00040218
0.00107344
-0.000381969
0.000851889
-0.000304809
0.000616051
-0.000213973
0.000434467
-0.000128229
0.000304652
-5.54059e-05
0.000214263
1.87338e-06
0.000151114
4.33334e-05
0.000105721
6.94967e-05
7.13377e-05
8.03745e-05
4.32667e-05
7.4631e-05
1.74814e-05
5.00927e-05
-9.93478e-06
1.92148e-06
-4.71377e-05
-7.69585e-05
-0.000108976
-0.000193308
-0.000227685
-0.000339932
-0.000463973
-0.000456521
-0.000895713
-0.000402926
-0.00146647
-0.00162846
-0.000225259
0.00118992
-1.35759e-05
0.00086176
0.000313325
0.000524987
0.000588472
0.000340905
0.000802411
0.000220528
0.000964611
0.000142452
0.00108534
9.35341e-05
0.00117359
6.28615e-05
0.00123645
4.28624e-05
0.00127885
2.89384e-05
0.00130376
1.83571e-05
0.00131201
9.23542e-06
0.00130182
2.5323e-07
0.00126816
-1.34834e-05
0.0011961
-3.69114e-05
0.00105879
-9.03773e-05
0.000813352
-0.000218534
0.000437584
-0.000519944
7.40551e-05
-0.00110294
-0.00155441
0.00118992
0.00205168
0.00257667
0.00291758
0.0031381
0.00328056
0.00337409
0.00343695
0.00347981
0.00350875
0.00352711
0.00353634
0.0035366
0.00352311
0.0034862
0.00339582
0.00317729
0.00265735
0.00155441
)
;

boundaryField
{
    movingWall
    {
        type            calculated;
        value           uniform 0;
    }
    fixedWalls
    {
        type            calculated;
        value           uniform 0;
    }
    frontAndBack
    {
        type            empty;
    }
}


// ************************************************************************* //
