/*--------------------------------*- C++ -*----------------------------------*\
  =========                 |
  \\      /  F ield         | OpenFOAM: The Open Source CFD Toolbox
   \\    /   O peration     | Website:  https://openfoam.org
    \\  /    A nd           | Version:  11
     \\/     M anipulation  |
\*---------------------------------------------------------------------------*/
FoamFile
{
    format      ascii;
    class       volVectorField;
    location    "0.4";
    object      U;
}
// * * * * * * * * * * * * * * * * * * * * * * * * * * * * * * * * * * * * * //

dimensions      [0 1 -1 0 0 0 0];

internalField   nonuniform List<vector> 
400
(
(-7.31093e-05 7.37333e-05 0)
(-0.000821937 0.000413147 0)
(-0.00229533 0.00055864 0)
(-0.00387452 0.000570103 0)
(-0.00537493 0.000527101 0)
(-0.00672032 0.0004613 0)
(-0.00786414 0.000381995 0)
(-0.00877324 0.000292096 0)
(-0.0094215 0.000193259 0)
(-0.00978814 8.72344e-05 0)
(-0.00985803 -2.38743e-05 0)
(-0.00962249 -0.000137591 0)
(-0.00908021 -0.00025096 0)
(-0.00823834 -0.000360571 0)
(-0.00711398 -0.000462296 0)
(-0.00573774 -0.000549929 0)
(-0.00416207 -0.000610064 0)
(-0.00247851 -0.000606248 0)
(-0.000896764 -0.000453863 0)
(-8.45491e-05 -8.98259e-05 0)
(-0.000414714 0.000818445 0)
(-0.00222002 0.00219125 0)
(-0.0052045 0.00274199 0)
(-0.00835099 0.00277451 0)
(-0.0113311 0.00256784 0)
(-0.0140028 0.00224499 0)
(-0.0162695 0.00185036 0)
(-0.0180616 0.00140202 0)
(-0.0193272 0.000911315 0)
(-0.0200274 0.000388728 0)
(-0.0201357 -0.000154531 0)
(-0.0196388 -0.000705887 0)
(-0.0185379 -0.00125098 0)
(-0.0168509 -0.00177309 0)
(-0.0146159 -0.0022516 0)
(-0.0118981 -0.00265596 0)
(-0.00880319 -0.00292623 0)
(-0.00549657 -0.00292153 0)
(-0.00234515 -0.0023454 0)
(-0.000437289 -0.000883863 0)
(-0.000594012 0.00233223 0)
(-0.00295615 0.00522716 0)
(-0.00671612 0.00632326 0)
(-0.0106336 0.00636018 0)
(-0.0143239 0.00588115 0)
(-0.0176236 0.00513582 0)
(-0.0204175 0.00422279 0)
(-0.0226217 0.00318634 0)
(-0.0241744 0.00205518 0)
(-0.02503 0.000854895 0)
(-0.0251576 -0.000388374 0)
(-0.0245417 -0.00164605 0)
(-0.0231836 -0.00288581 0)
(-0.0211043 -0.00406983 0)
(-0.0183485 -0.00515093 0)
(-0.0149945 -0.00605988 0)
(-0.0111675 -0.00666661 0)
(-0.00705859 -0.00668541 0)
(-0.0030998 -0.00553876 0)
(-0.000618565 -0.00246803 0)
(-0.000676272 0.00410504 0)
(-0.00335818 0.00873912 0)
(-0.0076055 0.0104224 0)
(-0.0120023 0.0104369 0)
(-0.0161253 0.00963395 0)
(-0.0198022 0.0084028 0)
(-0.0229105 0.00690037 0)
(-0.025362 0.00519929 0)
(-0.0270921 0.00334721 0)
(-0.0280528 0.00138575 0)
(-0.0282105 -0.000643446 0)
(-0.0275468 -0.00269553 0)
(-0.0260591 -0.0047195 0)
(-0.0237649 -0.00665499 0)
(-0.0207067 -0.0084256 0)
(-0.0169643 -0.00991913 0)
(-0.0126707 -0.0109278 0)
(-0.00803268 -0.0110033 0)
(-0.00353407 -0.00923814 0)
(-0.000704662 -0.00432047 0)
(-0.000741445 0.00605246 0)
(-0.00370577 0.0126047 0)
(-0.00840436 0.0149175 0)
(-0.0132505 0.0148888 0)
(-0.0177787 0.0137194 0)
(-0.0218061 0.0119525 0)
(-0.0252062 0.00980823 0)
(-0.0278898 0.00738919 0)
(-0.0297925 0.00476218 0)
(-0.0308658 0.00198407 0)
(-0.0310742 -0.000889532 0)
(-0.0303938 -0.00379928 0)
(-0.0288148 -0.00667689 0)
(-0.0263451 -0.00943967 0)
(-0.0230184 -0.0119802 0)
(-0.0189097 -0.014138 0)
(-0.0141567 -0.0156167 0)
(-0.00898578 -0.0157825 0)
(-0.00394499 -0.0133475 0)
(-0.000779588 -0.00636945 0)
(-0.000822876 0.00820134 0)
(-0.00412761 0.0168854 0)
(-0.00936556 0.0198861 0)
(-0.0147495 0.0197937 0)
(-0.0197604 0.0182065 0)
(-0.0242024 0.015843 0)
(-0.0279455 0.0129941 0)
(-0.0309025 0.00979542 0)
(-0.0330122 0.00633279 0)
(-0.0342278 0.00267643 0)
(-0.0345119 -0.00110727 0)
(-0.0338338 -0.0049481 0)
(-0.0321717 -0.00876376 0)
(-0.0295174 -0.0124507 0)
(-0.0258878 -0.0158684 0)
(-0.0213457 -0.0188003 0)
(-0.0160305 -0.0208437 0)
(-0.0101941 -0.0211439 0)
(-0.00447081 -0.0179689 0)
(-0.000877925 -0.00866141 0)
(-0.000932966 0.0106133 0)
(-0.00468015 0.0216946 0)
(-0.0106067 0.0254529 0)
(-0.0166697 0.0252669 0)
(-0.0222819 0.0231932 0)
(-0.027233 0.0201532 0)
(-0.0313923 0.0165206 0)
(-0.0346792 0.0124675 0)
(-0.0370408 0.0080987 0)
(-0.038436 0.00349444 0)
(-0.0388267 -0.00127351 0)
(-0.0381739 -0.00613062 0)
(-0.0364384 -0.0109866 0)
(-0.0335873 -0.015721 0)
(-0.0296083 -0.0201593 0)
(-0.0245395 -0.0240183 0)
(-0.0185137 -0.0267632 0)
(-0.0118118 -0.0272678 0)
(-0.00518347 -0.0232689 0)
(-0.00101421 -0.0112825 0)
(-0.00107984 0.0133726 0)
(-0.00540272 0.027186 0)
(-0.0122099 0.0317801 0)
(-0.0191251 0.0314511 0)
(-0.0254755 0.0287941 0)
(-0.0310376 0.024971 0)
(-0.0356868 0.0204538 0)
(-0.0393579 0.0154567 0)
(-0.0420151 0.0101021 0)
(-0.0436292 0.00447478 0)
(-0.0441655 -0.00135654 0)
(-0.0435754 -0.00732359 0)
(-0.0417962 -0.0133388 0)
(-0.0387575 -0.0192733 0)
(-0.0343994 -0.0249205 0)
(-0.0287134 -0.0299195 0)
(-0.0218068 -0.033568 0)
(-0.0139854 -0.0343943 0)
(-0.00615152 -0.0294784 0)
(-0.00120128 -0.0143515 0)
(-0.00127432 0.0165863 0)
(-0.00634356 0.0335544 0)
(-0.0142704 0.0390661 0)
(-0.0222405 0.038511 0)
(-0.029476 0.0351319 0)
(-0.0357468 0.0303825 0)
(-0.0409476 0.0248541 0)
(-0.0450438 0.0188083 0)
(-0.0480303 0.0123829 0)
(-0.0499011 0.0056588 0)
(-0.0506314 -0.00131116 0)
(-0.0501639 -0.00848142 0)
(-0.0484053 -0.0157846 0)
(-0.0452317 -0.0231003 0)
(-0.0405079 -0.0301989 0)
(-0.0341414 -0.0366329 0)
(-0.0261762 -0.0414864 0)
(-0.0169223 -0.0428347 0)
(-0.00747743 -0.0369117 0)
(-0.00145975 -0.0180301 0)
(-0.00153487 0.0203944 0)
(-0.0075773 0.0410486 0)
(-0.0169265 0.0475509 0)
(-0.0261876 0.0466299 0)
(-0.0344577 0.0423282 0)
(-0.0415173 0.0364602 0)
(-0.0473043 0.0297624 0)
(-0.0518388 0.0225504 0)
(-0.0551678 0.0149716 0)
(-0.0573251 0.00709053 0)
(-0.0583074 -0.00107433 0)
(-0.0580527 -0.00952421 0)
(-0.0564313 -0.0182394 0)
(-0.0532468 -0.0271375 0)
(-0.0482506 -0.0359901 0)
(-0.041207 -0.044264 0)
(-0.0320239 -0.0507762 0)
(-0.0209579 -0.0529938 0)
(-0.00934041 -0.0460091 0)
(-0.00182976 -0.0225518 0)
(-0.00189538 0.024992 0)
(-0.00922792 0.0499976 0)
(-0.0203919 0.0575282 0)
(-0.031216 0.0560073 0)
(-0.0406589 0.0504903 0)
(-0.048548 0.0432448 0)
(-0.0549052 0.0351833 0)
(-0.0598427 0.0266789 0)
(-0.0634903 0.0178784 0)
(-0.0659451 0.00881139 0)
(-0.0672436 -0.000564137 0)
(-0.0673287 -0.010325 0)
(-0.0660337 -0.0205435 0)
(-0.0630726 -0.0312239 0)
(-0.0580359 -0.0421893 0)
(-0.0504565 -0.0528491 0)
(-0.0399767 -0.0617058 0)
(-0.0266629 -0.0654018 0)
(-0.0120785 -0.0574165 0)
(-0.00239767 -0.0282842 0)
(-0.00242165 0.0306707 0)
(-0.0115104 0.0608537 0)
(-0.0250067 0.0693612 0)
(-0.0376955 0.0668482 0)
(-0.048407 0.0596877 0)
(-0.0570884 0.0507175 0)
(-0.0639128 0.0410577 0)
(-0.0691378 0.0311346 0)
(-0.0730176 0.0210763 0)
(-0.0757449 0.0108504 0)
(-0.0774174 0.000323002 0)
(-0.0780052 -0.0106965 0)
(-0.0773192 -0.0224302 0)
(-0.074974 -0.0350446 0)
(-0.0703541 -0.0485084 0)
(-0.0626452 -0.0622617 0)
(-0.0510075 -0.0744901 0)
(-0.0350263 -0.0807392 0)
(-0.0163621 -0.0721204 0)
(-0.00336252 -0.0358681 0)
(-0.00324816 0.0379002 0)
(-0.0148102 0.0742579 0)
(-0.0313164 0.0834911 0)
(-0.0461659 0.079334 0)
(-0.0581333 0.0699054 0)
(-0.067423 0.058752 0)
(-0.0744632 0.04722 0)
(-0.0797306 0.0357682 0)
(-0.0836542 0.0244732 0)
(-0.0865587 0.0132065 0)
(-0.0886317 0.00170615 0)
(-0.0899056 -0.0103844 0)
(-0.090205 -0.023494 0)
(-0.0890677 -0.0380567 0)
(-0.0856555 -0.0543458 0)
(-0.0786863 -0.0720343 0)
(-0.0665197 -0.0891254 0)
(-0.0477026 -0.0998115 0)
(-0.023524 -0.0916709 0)
(-0.00518823 -0.0465341 0)
(-0.00465727 0.047492 0)
(-0.0198275 0.0911311 0)
(-0.0401717 0.100416 0)
(-0.0573489 0.0935432 0)
(-0.0703002 0.0809527 0)
(-0.0797326 0.06703 0)
(-0.0864813 0.0533284 0)
(-0.0913309 0.0402832 0)
(-0.0949369 0.0278637 0)
(-0.0977886 0.0158009 0)
(-0.1002 0.00366762 0)
(-0.102304 -0.00909875 0)
(-0.104001 -0.0231892 0)
(-0.10484 -0.0394266 0)
(-0.103827 -0.0586196 0)
(-0.0991644 -0.0810564 0)
(-0.0880378 -0.105004 0)
(-0.0670479 -0.123303 0)
(-0.0359837 -0.118429 0)
(-0.00887603 -0.0627395 0)
(-0.00723452 0.0609401 0)
(-0.0277909 0.112774 0)
(-0.0527233 0.120561 0)
(-0.0718756 0.109246 0)
(-0.0849107 0.0922602 0)
(-0.0934431 0.0748706 0)
(-0.0989136 0.0587288 0)
(-0.102504 0.0441273 0)
(-0.105126 0.0308358 0)
(-0.10744 0.0183871 0)
(-0.109899 0.00615928 0)
(-0.112769 -0.006625 0)
(-0.116117 -0.0209357 0)
(-0.119664 -0.0380859 0)
(-0.122483 -0.0596819 0)
(-0.122446 -0.087218 0)
(-0.115361 -0.120203 0)
(-0.0947906 -0.150908 0)
(-0.0570019 -0.155276 0)
(-0.016162 -0.0889785 0)
(-0.0121021 0.081059 0)
(-0.0405607 0.140757 0)
(-0.0697029 0.143758 0)
(-0.0887635 0.125314 0)
(-0.0994088 0.102364 0)
(-0.104743 0.0808277 0)
(-0.107001 0.0621569 0)
(-0.107785 0.0462695 0)
(-0.108211 0.0325888 0)
(-0.109043 0.0203812 0)
(-0.110809 0.00881978 0)
(-0.113881 -0.00305213 0)
(-0.118561 -0.0164551 0)
(-0.124939 -0.0331484 0)
(-0.132547 -0.0557184 0)
(-0.139548 -0.0875454 0)
(-0.140853 -0.130954 0)
(-0.126547 -0.179859 0)
(-0.0871733 -0.203915 0)
(-0.0285757 -0.132405 0)
(-0.0209719 0.112629 0)
(-0.0595365 0.175148 0)
(-0.0875326 0.167133 0)
(-0.0994815 0.137906 0)
(-0.101603 0.107583 0)
(-0.0989498 0.0818221 0)
(-0.0944313 0.0612035 0)
(-0.0897981 0.0448707 0)
(-0.0860774 0.0317062 0)
(-0.0838793 0.0206571 0)
(-0.0836122 0.0107229 0)
(-0.0856184 0.000861679 0)
(-0.0903447 -0.0102921 0)
(-0.0982919 -0.0247066 0)
(-0.10989 -0.0458286 0)
(-0.124674 -0.0793429 0)
(-0.138453 -0.132086 0)
(-0.139753 -0.203566 0)
(-0.114338 -0.261608 0)
(-0.0429981 -0.204017 0)
(-0.0341908 0.162656 0)
(-0.0779564 0.207599 0)
(-0.0827817 0.178561 0)
(-0.0700653 0.136113 0)
(-0.0518309 0.0996713 0)
(-0.0336217 0.0720646 0)
(-0.017602 0.0519183 0)
(-0.00458362 0.0372139 0)
(0.00526732 0.0262157 0)
(0.0120103 0.0176025 0)
(0.0157059 0.010347 0)
(0.0162693 0.00351119 0)
(0.0133784 -0.00405424 0)
(0.00637177 -0.0142082 0)
(-0.00622299 -0.03054 0)
(-0.0263051 -0.0602968 0)
(-0.0536018 -0.115348 0)
(-0.080851 -0.20619 0)
(-0.101119 -0.310791 0)
(-0.0426265 -0.306632 0)
(-0.0313221 0.249941 0)
(-0.040747 0.216615 0)
(0.032163 0.149032 0)
(0.0931203 0.101047 0)
(0.141756 0.0678864 0)
(0.178914 0.0455781 0)
(0.206735 0.0309837 0)
(0.227229 0.021394 0)
(0.242037 0.0148606 0)
(0.252361 0.0101387 0)
(0.258977 0.00644888 0)
(0.26226 0.00320531 0)
(0.262105 -0.000167401 0)
(0.257908 -0.00466186 0)
(0.247664 -0.0126625 0)
(0.22723 -0.0297653 0)
(0.190338 -0.0687731 0)
(0.133243 -0.153378 0)
(0.025733 -0.291018 0)
(0.0217919 -0.362679 0)
(0.243493 0.159904 0)
(0.311433 0.122067 0)
(0.461507 0.075759 0)
(0.555213 0.0468794 0)
(0.610232 0.0287535 0)
(0.644669 0.0174358 0)
(0.66721 0.0106508 0)
(0.682257 0.00668396 0)
(0.692453 0.00433395 0)
(0.699397 0.00286865 0)
(0.70399 0.00187467 0)
(0.70667 0.00110473 0)
(0.707558 0.00038593 0)
(0.706207 -0.000419554 0)
(0.70107 -0.0019463 0)
(0.688617 -0.00558037 0)
(0.658297 -0.0147964 0)
(0.597133 -0.0402386 0)
(0.421081 -0.10692 0)
(0.303704 -0.171444 0)
)
;

boundaryField
{
    movingWall
    {
        type            fixedValue;
        value           uniform (1 0 0);
    }
    fixedWalls
    {
        type            noSlip;
    }
    frontAndBack
    {
        type            empty;
    }
}


// ************************************************************************* //
