/*--------------------------------*- C++ -*----------------------------------*\
  =========                 |
  \\      /  F ield         | OpenFOAM: The Open Source CFD Toolbox
   \\    /   O peration     | Website:  https://openfoam.org
    \\  /    A nd           | Version:  11
     \\/     M anipulation  |
\*---------------------------------------------------------------------------*/
FoamFile
{
    format      ascii;
    class       volScalarField;
    location    "0.1";
    object      p;
}
// * * * * * * * * * * * * * * * * * * * * * * * * * * * * * * * * * * * * * //

dimensions      [0 2 -2 0 0 0 0];

internalField   nonuniform List<scalar> 
400
(
9.78133e-09
0.000134573
0.000988482
0.00250524
0.004625
0.00728548
0.0104108
0.013913
0.0176947
0.0216516
0.0256747
0.0296526
0.0334742
0.037031
0.0402203
0.0429475
0.04513
0.0466994
0.0475899
0.047741
-0.000137468
-8.16606e-06
0.000857031
0.00238477
0.00451561
0.00718947
0.0103308
0.0138513
0.0176533
0.021632
0.0256777
0.0296786
0.033523
0.0371017
0.0403109
0.0430556
0.0452527
0.0468354
0.0477381
0.0478843
-0.00100468
-0.000882501
1.42623e-05
0.00159932
0.00380868
0.00657992
0.00983453
0.0134811
0.0174188
0.0215394
0.0257303
0.0298763
0.0338622
0.0375752
0.0409074
0.0437596
0.0460445
0.0476915
0.0486296
0.0487692
-0.00258967
-0.00246542
-0.00151084
0.000178126
0.00253094
0.00547986
0.00894056
0.0128157
0.0169986
0.0213754
0.0258279
0.0302352
0.034476
0.0384309
0.0419852
0.0450318
0.0474758
0.0492393
0.050243
0.0503868
-0.00492361
-0.00479002
-0.00374804
-0.00190474
0.000660281
0.00387105
0.00763438
0.0118441
0.016385
0.0211353
0.025969
0.0307572
0.0353703
0.0396797
0.0435604
0.0468939
0.0495739
0.0515113
0.0526151
0.0527725
-0.00807627
-0.00792738
-0.00676436
-0.00470948
-0.00185529
0.00171034
0.00588177
0.0105408
0.0155609
0.0208102
0.026153
0.0314506
0.0365629
0.0413496
0.0456721
0.0493967
0.0524005
0.0545783
0.0558221
0.0560019
-0.0121436
-0.0119728
-0.010649
-0.00831562
-0.00508367
-0.00105789
0.00363908
0.00887323
0.0145043
0.0203881
0.0263779
0.0323241
0.0380746
0.0434751
0.04837
0.0526057
0.0560367
0.0585348
0.0599674
0.0601795
-0.0172523
-0.0170513
-0.0155177
-0.0128247
-0.00911003
-0.00450221
0.00085332
0.00680256
0.0131887
0.019854
0.0266402
0.0333866
0.0399286
0.0460961
0.0517137
0.0566023
0.060586
0.0635038
0.065187
0.0654449
-0.0235671
-0.0233244
-0.0215179
-0.0183635
-0.0140381
-0.00870396
-0.00253691
0.00428418
0.0115835
0.0191897
0.0269335
0.0346447
0.0421473
0.0492556
0.0557711
0.0614836
0.0661768
0.0696428
0.0716589
0.0719817
-0.0313022
-0.0310005
-0.0288358
-0.0250872
-0.0199904
-0.0137556
-0.00659897
0.00127033
0.00965601
0.0183739
0.0272474
0.0361005
0.0447493
0.0529946
0.0606144
0.0673607
0.0729645
0.0771507
0.0796148
0.0800324
-0.0407392
-0.0403502
-0.0377056
-0.0331829
-0.027107
-0.0197569
-0.0114015
-0.0022858
0.00737352
0.0173834
0.027566
0.0377469
0.0477424
0.0573455
0.0663126
0.0743539
0.0811324
0.0862776
0.0893586
0.0899207
-0.0522569
-0.0517293
-0.0484219
-0.0428718
-0.0355418
-0.0268079
-0.0170065
-0.00642297
0.00470862
0.0161943
0.0278657
0.0395628
0.0511146
0.0623187
0.0729184
0.0825818
0.0908888
0.0973357
0.101294
0.102092
-0.0663843
-0.0656165
-0.0613564
-0.05441
-0.0454526
-0.0349945
-0.0234553
-0.0111606
0.00164669
0.0147856
0.0281141
0.0415051
0.0548209
0.0678846
0.0804454
0.0921399
0.102456
0.11071
0.115968
0.117181
-0.0838991
-0.0826736
-0.0769767
-0.0680803
-0.0569803
-0.0443651
-0.0307467
-0.0164815
-0.00180236
0.0131451
0.028269
0.0435013
0.0587666
0.0739462
0.0888311
0.103059
0.116037
0.12686
0.134133
0.136149
-0.106023
-0.103844
-0.0958624
-0.0841671
-0.0702089
-0.0548902
-0.0388041
-0.0223072
-0.00558747
0.011278
0.0282797
0.045441
0.0627863
0.0803019
0.0978802
0.115231
0.131746
0.146295
0.156844
0.160551
-0.134868
-0.130531
-0.118705
-0.102892
-0.0850905
-0.0663983
-0.0474267
-0.0284644
-0.00959536
0.00921967
0.0280916
0.0471709
0.0666235
0.0865993
0.10718
0.12828
0.149448
0.169485
0.185627
0.193179
-0.174662
-0.164806
-0.146244
-0.124283
-0.101321
-0.0784823
-0.0562293
-0.0346487
-0.0136279
0.00704991
0.0276566
0.0484981
0.0699199
0.0922922
0.115994
0.141344
0.168405
0.196382
0.222046
0.239085
-0.234246
-0.208834
-0.178867
-0.147863
-0.118083
-0.0903299
-0.0645406
-0.0403658
-0.0173644
0.00492599
0.0269737
0.0492339
0.0722605
0.0966666
0.123212
0.152842
0.186635
0.225046
0.265407
0.3068
-0.330614
-0.261974
-0.213715
-0.170681
-0.132774
-0.0999734
-0.0709595
-0.044667
-0.0201882
0.00321515
0.0261998
0.0493458
0.0733661
0.0990923
0.127684
0.160895
0.201372
0.252979
0.316934
0.430453
-0.570139
-0.321081
-0.233484
-0.180853
-0.138371
-0.10312
-0.0729045
-0.0459462
-0.021068
0.0025824
0.0257069
0.0490481
0.073265
0.0993295
0.128741
0.16424
0.211736
0.284197
0.407133
0.708214
)
;

boundaryField
{
    movingWall
    {
        type            zeroGradient;
    }
    fixedWalls
    {
        type            zeroGradient;
    }
    frontAndBack
    {
        type            empty;
    }
}


// ************************************************************************* //
