/*--------------------------------*- C++ -*----------------------------------*\
  =========                 |
  \\      /  F ield         | OpenFOAM: The Open Source CFD Toolbox
   \\    /   O peration     | Website:  https://openfoam.org
    \\  /    A nd           | Version:  11
     \\/     M anipulation  |
\*---------------------------------------------------------------------------*/
FoamFile
{
    format      ascii;
    class       surfaceScalarField;
    location    "0.1";
    object      phi;
}
// * * * * * * * * * * * * * * * * * * * * * * * * * * * * * * * * * * * * * //

dimensions      [0 3 -1 0 0 0 0];

internalField   nonuniform List<scalar> 
760
(
-3.84166e-06
3.84165e-06
-9.33815e-06
5.49649e-06
-1.48187e-05
5.48053e-06
-1.99075e-05
5.08881e-06
-2.44511e-05
4.54364e-06
-2.83339e-05
3.88276e-06
-3.1461e-05
3.12707e-06
-3.37582e-05
2.29722e-06
-3.5172e-05
1.41384e-06
-3.56692e-05
4.9718e-07
-3.52364e-05
-4.32771e-07
-3.38805e-05
-1.35591e-06
-3.16289e-05
-2.25162e-06
-2.85304e-05
-3.09853e-06
-2.4656e-05
-3.87442e-06
-2.00993e-05
-4.55665e-06
-1.49773e-05
-5.12203e-06
-9.44683e-06
-5.53043e-06
-3.88815e-06
-5.55868e-06
-3.88814e-06
-5.69374e-06
9.53539e-06
-1.34136e-05
1.32163e-05
-2.10763e-05
1.31432e-05
-2.81967e-05
1.22093e-05
-3.45527e-05
1.08996e-05
-3.99797e-05
9.30979e-06
-4.4346e-05
7.49338e-06
-4.75497e-05
5.50092e-06
-4.95179e-05
3.38203e-06
-5.02057e-05
1.18499e-06
-4.95956e-05
-1.04288e-06
-4.76973e-05
-3.25423e-06
-4.45484e-05
-5.40047e-06
-4.02161e-05
-7.43086e-06
-3.47982e-05
-9.29229e-06
-2.84251e-05
-1.09298e-05
-2.12624e-05
-1.22847e-05
-1.35371e-05
-1.32558e-05
-5.7466e-06
-1.33492e-05
-9.63475e-06
-6.19074e-06
1.57261e-05
-1.45741e-05
2.15997e-05
-2.28735e-05
2.14426e-05
-3.05711e-05
1.99069e-05
-3.74316e-05
1.776e-05
-4.32807e-05
1.51589e-05
-4.79804e-05
1.21931e-05
-5.14254e-05
8.94598e-06
-5.35414e-05
5.49804e-06
-5.42828e-05
1.92639e-06
-5.36316e-05
-1.69415e-06
-5.15968e-05
-5.289e-06
-4.82159e-05
-8.78143e-06
-4.35563e-05
-1.20905e-05
-3.77186e-05
-1.513e-05
-3.0839e-05
-1.78094e-05
-2.30931e-05
-2.00306e-05
-1.47223e-05
-2.16266e-05
-6.25758e-06
-2.18138e-05
-1.58923e-05
-6.64915e-06
2.23753e-05
-1.56661e-05
3.06167e-05
-2.45781e-05
3.03546e-05
-3.28239e-05
2.81528e-05
-4.01542e-05
2.50903e-05
-4.63884e-05
2.13931e-05
-5.13869e-05
1.71916e-05
-5.5046e-05
1.2605e-05
-5.72937e-05
7.74574e-06
-5.80864e-05
2.71907e-06
-5.74061e-05
-2.37443e-06
-5.526e-05
-7.43509e-06
-5.16817e-05
-1.23597e-05
-4.67346e-05
-1.70376e-05
-4.05162e-05
-2.13484e-05
-3.31632e-05
-2.51624e-05
-2.48576e-05
-2.83362e-05
-1.58559e-05
-3.06284e-05
-6.73453e-06
-3.09352e-05
-2.26269e-05
-7.28321e-06
2.96585e-05
-1.71579e-05
4.04913e-05
-2.68967e-05
4.00934e-05
-3.58783e-05
3.71344e-05
-4.38328e-05
3.30448e-05
-5.05727e-05
2.8133e-05
-5.59592e-05
2.25781e-05
-5.98939e-05
1.65397e-05
-6.2311e-05
1.01628e-05
-6.3171e-05
3.57906e-06
-6.24567e-05
-3.08866e-06
-6.0172e-05
-9.71978e-06
-5.63435e-05
-1.61882e-05
-5.10258e-05
-2.23554e-05
-4.43088e-05
-2.80654e-05
-3.63267e-05
-3.31444e-05
-2.7268e-05
-3.73949e-05
-1.74108e-05
-4.04855e-05
-7.39679e-06
-4.09492e-05
-3.00236e-05
-8.13947e-06
3.7798e-05
-1.91604e-05
5.15122e-05
-2.99949e-05
5.09279e-05
-3.99405e-05
4.708e-05
-4.87016e-05
4.1806e-05
-5.60853e-05
3.55166e-05
-6.19589e-05
2.84518e-05
-6.62357e-05
2.08165e-05
-6.8862e-05
1.2789e-05
-6.98067e-05
4.52373e-06
-6.90545e-05
-3.84081e-06
-6.6604e-05
-1.21703e-05
-6.24698e-05
-2.03224e-05
-5.66908e-05
-2.81344e-05
-4.93415e-05
-3.54147e-05
-4.05469e-05
-4.1939e-05
-3.04998e-05
-4.7442e-05
-1.95059e-05
-5.14795e-05
-8.29465e-06
-5.21604e-05
-3.83183e-05
-9.26056e-06
4.70585e-05
-2.17706e-05
6.40223e-05
-3.40111e-05
6.31684e-05
-4.51733e-05
5.82421e-05
-5.4932e-05
5.15647e-05
-6.30946e-05
4.36792e-05
-6.95452e-05
3.49024e-05
-7.42205e-05
2.54918e-05
-7.70888e-05
1.56573e-05
-7.81339e-05
5.56889e-06
-7.73448e-05
-4.62996e-06
-7.47117e-05
-1.48034e-05
-7.02301e-05
-2.4804e-05
-6.39117e-05
-3.44528e-05
-5.58021e-05
-4.35242e-05
-4.60046e-05
-5.17365e-05
-3.47084e-05
-5.87382e-05
-2.22504e-05
-6.39375e-05
-9.47658e-06
-6.49343e-05
-4.77949e-05
-1.07086e-05
5.77671e-05
-2.51244e-05
7.84381e-05
-3.91341e-05
7.71781e-05
-5.17905e-05
7.08985e-05
-6.27391e-05
6.25133e-05
-7.18015e-05
5.27416e-05
-7.8898e-05
4.19988e-05
-8.40077e-05
3.06015e-05
-8.71369e-05
1.87866e-05
-8.82946e-05
6.72657e-06
-8.74771e-05
-5.44744e-06
-8.46631e-05
-1.76175e-05
-7.98177e-05
-2.96493e-05
-7.29082e-05
-4.13623e-05
-6.39294e-05
-5.25031e-05
-5.29397e-05
-6.27261e-05
-4.01078e-05
-7.15701e-05
-2.57998e-05
-7.82455e-05
-1.10139e-05
-7.97202e-05
-5.88088e-05
-1.25779e-05
7.0345e-05
-2.94231e-05
9.52833e-05
-4.56342e-05
9.33893e-05
-6.00872e-05
8.53514e-05
-7.24074e-05
7.48335e-05
-8.24585e-05
6.27927e-05
-9.02299e-05
4.97702e-05
-9.57743e-05
3.61459e-05
-9.91596e-05
2.21719e-05
-0.000100435
8.00166e-06
-9.9609e-05
-6.27314e-06
-9.66446e-05
-2.05819e-05
-9.14615e-05
-3.48324e-05
-8.39569e-05
-4.88669e-05
-7.40401e-05
-6.24199e-05
-6.16858e-05
-7.50805e-05
-4.70071e-05
-8.62487e-05
-3.03862e-05
-9.48664e-05
-1.30163e-05
-9.70901e-05
-7.18251e-05
-1.50158e-05
8.53608e-05
-3.49714e-05
0.000115239
-5.39058e-05
0.000112324
-7.04747e-05
0.00010192
-8.43125e-05
8.86713e-05
-9.53777e-05
7.38579e-05
-0.000103784
5.81768e-05
-0.000109705
4.20664e-05
-0.000113303
2.57698e-05
-0.000114688
9.3867e-06
-0.00011389
-7.07081e-06
-0.00011085
-2.36221e-05
-0.000105422
-4.02598e-05
-9.73995e-05
-5.68899e-05
-8.65531e-05
-7.32663e-05
-7.27095e-05
-8.89241e-05
-5.58609e-05
-0.000103097
-3.63655e-05
-0.000114362
-1.56574e-05
-0.000117798
-8.74825e-05
-1.82617e-05
0.000103622
-4.22456e-05
0.000139223
-6.45355e-05
0.000134614
-8.35317e-05
0.000120917
-9.89497e-05
0.000104089
-0.000110939
8.58474e-05
-0.000119827
6.7064e-05
-0.000125972
4.82115e-05
-0.000129679
2.94776e-05
-0.000131147
1.0854e-05
-0.000130435
-7.78248e-06
-0.000127458
-2.65995e-05
-0.000121982
-4.57355e-05
-0.000113649
-6.52231e-05
-0.00010202
-8.48953e-05
-8.66698e-05
-0.000104274
-6.73509e-05
-0.000122416
-4.43006e-05
-0.000137412
-1.92249e-05
-0.000142874
-0.000106707
-2.27245e-05
0.000126347
-5.20148e-05
0.000168513
-7.8414e-05
0.000161013
-0.000100079
0.000142582
-0.000116968
0.000120979
-0.000129593
9.84719e-05
-0.000138625
7.60963e-05
-0.000144704
5.42907e-05
-0.000148332
3.31056e-05
-0.000149824
1.23454e-05
-0.000149283
-8.32297e-06
-0.000146595
-2.9288e-05
-0.000141416
-5.0914e-05
-0.000133186
-7.34534e-05
-0.000121158
-9.69232e-05
-0.000104503
-0.000120929
-8.25204e-05
-0.000144398
-5.51141e-05
-0.000164818
-2.42209e-05
-0.000173767
-0.000130928
-2.91429e-05
0.00015549
-6.55662e-05
0.000204937
-9.69187e-05
0.000192365
-0.000121285
0.000166948
-0.000139207
0.000138901
-0.000151845
0.00011111
-0.000160412
8.46631e-05
-0.000165938
5.98166e-05
-0.000169178
3.63459e-05
-0.000170591
1.37586e-05
-0.000170338
-8.57609e-06
-0.000168277
-3.13496e-05
-0.000163944
-5.52466e-05
-0.000156533
-8.08646e-05
-0.000144881
-0.000108575
-0.000127535
-0.000138275
-0.000102994
-0.00016894
-7.03756e-05
-0.000197437
-3.15801e-05
-0.000212563
-0.000162508
-3.8941e-05
0.000194431
-8.51332e-05
0.000251129
-0.000122208
0.00022944
-0.000148798
0.000193538
-0.000166708
0.000156811
-0.00017821
0.000122611
-0.000185309
9.17622e-05
-0.000189535
6.40422e-05
-0.00019193
3.87411e-05
-0.000193105
1.4934e-05
-0.000193285
-8.3966e-06
-0.000192316
-3.23186e-05
-0.000189633
-5.79293e-05
-0.000184177
-8.63205e-05
-0.000174286
-0.000118466
-0.000157623
-0.000154938
-0.000131328
-0.000195235
-9.28535e-05
-0.000235911
-4.3171e-05
-0.000262245
-0.000205679
-5.50803e-05
0.000249511
-0.000114718
0.000310766
-0.000157663
0.000272385
-0.000184858
0.000220734
-0.00020064
0.000172592
-0.000209062
0.000131034
-0.000213173
9.58729e-05
-0.000215043
6.59122e-05
-0.00021597
3.96684e-05
-0.00021668
1.56435e-05
-0.000217452
-7.6245e-06
-0.000218158
-3.16126e-05
-0.000218204
-5.78834e-05
-0.000216366
-8.81584e-05
-0.000210509
-0.000124323
-0.000197214
-0.000168233
-0.000171516
-0.000220934
-0.00012758
-0.000279847
-6.30327e-05
-0.000326793
-0.000268712
-8.42333e-05
0.000333744
-0.000161534
0.000388066
-0.000208263
0.000319115
-0.000232011
0.000244482
-0.000241752
0.000182333
-0.000244039
0.000133321
-0.000243028
9.48626e-05
-0.000241182
6.40657e-05
-0.000239873
3.83593e-05
-0.000239817
1.5588e-05
-0.000241315
-6.1262e-06
-0.00024432
-2.86077e-05
-0.000248371
-5.38331e-05
-0.000252341
-8.41878e-05
-0.000253933
-0.000122731
-0.000248777
-0.000173388
-0.000229174
-0.000240537
-0.00018347
-0.000325551
-0.000100255
-0.000410007
-0.000368967
-0.000140346
0.000474091
-0.000236285
0.000484005
-0.000278022
0.000360852
-0.000289285
0.000255745
-0.000286161
0.000179209
-0.000277818
0.000124977
-0.000268943
8.59878e-05
-0.000261796
5.69188e-05
-0.000257389
3.3952e-05
-0.000256177
1.43758e-05
-0.000258396
-3.90669e-06
-0.000264149
-2.28549e-05
-0.000273355
-4.46277e-05
-0.000285488
-7.2055e-05
-0.000298905
-0.000109313
-0.000309308
-0.000162986
-0.000306647
-0.000243198
-0.00027092
-0.000361278
-0.000170371
-0.000510556
-0.000539338
-0.00023793
0.000712021
-0.000330679
0.000576753
-0.000339845
0.000370018
-0.000319328
0.000235228
-0.000291901
0.000151782
-0.000266768
9.98445e-05
-0.000246802
6.60218e-05
-0.000232701
4.28182e-05
-0.000224284
2.55345e-05
-0.000221314
1.14061e-05
-0.000223811
-1.40991e-06
-0.000232052
-1.4614e-05
-0.000246569
-3.01105e-05
-0.000268057
-5.05666e-05
-0.000296865
-8.05053e-05
-0.000331364
-0.000128486
-0.000362538
-0.000212024
-0.00036364
-0.000360176
-0.000273321
-0.000600875
-0.000812659
-0.000259939
0.00097196
-0.000222873
0.000539687
-0.000121281
0.000268426
-3.35345e-05
0.000147481
3.23866e-05
8.58606e-05
8.00147e-05
5.22163e-05
0.000112965
3.30717e-05
0.000134836
2.09475e-05
0.000147846
1.25237e-05
0.000153241
6.01148e-06
0.000151675
1.56068e-07
0.000142732
-5.67102e-06
0.000125269
-1.26471e-05
9.69543e-05
-2.22522e-05
5.42243e-05
-3.77754e-05
-7.07576e-06
-6.7186e-05
-9.06449e-05
-0.000128455
-0.000184355
-0.000266466
-0.000213844
-0.000571386
-0.0010265
0.00097196
0.00151165
0.00178007
0.00192756
0.00201342
0.00206563
0.0020987
0.00211965
0.00213217
0.00213819
0.00213834
0.00213267
0.00212002
0.00209777
0.00206
0.00199281
0.00186436
0.00159789
0.0010265
)
;

boundaryField
{
    movingWall
    {
        type            calculated;
        value           uniform 0;
    }
    fixedWalls
    {
        type            calculated;
        value           uniform 0;
    }
    frontAndBack
    {
        type            empty;
    }
}


// ************************************************************************* //
