/*--------------------------------*- C++ -*----------------------------------*\
  =========                 |
  \\      /  F ield         | OpenFOAM: The Open Source CFD Toolbox
   \\    /   O peration     | Website:  https://openfoam.org
    \\  /    A nd           | Version:  11
     \\/     M anipulation  |
\*---------------------------------------------------------------------------*/
FoamFile
{
    format      ascii;
    class       volVectorField;
    location    "0.1";
    object      U;
}
// * * * * * * * * * * * * * * * * * * * * * * * * * * * * * * * * * * * * * //

dimensions      [0 1 -1 0 0 0 0];

internalField   nonuniform List<vector> 
400
(
(-0.000367906 0.000361659 0)
(-0.00129827 0.000519787 0)
(-0.00241789 0.000518907 0)
(-0.00348314 0.000481953 0)
(-0.00444946 0.000430455 0)
(-0.00529437 0.00036799 0)
(-0.0059972 0.000296499 0)
(-0.00654101 0.00021793 0)
(-0.00691303 0.000134241 0)
(-0.0071046 4.73611e-05 0)
(-0.00711108 -4.08049e-05 0)
(-0.0069318 -0.000128331 0)
(-0.00657019 -0.000213244 0)
(-0.00603385 -0.000293505 0)
(-0.00533474 -0.000367006 0)
(-0.00448941 -0.000431613 0)
(-0.0035185 -0.000485185 0)
(-0.00244433 -0.000524034 0)
(-0.00131369 -0.000526809 0)
(-0.000371575 -0.000367163 0)
(-0.000546497 0.0013074 0)
(-0.00188457 0.00182965 0)
(-0.00345407 0.00182124 0)
(-0.00494538 0.00169176 0)
(-0.00629789 0.00151059 0)
(-0.00747991 0.00129069 0)
(-0.00846228 0.00103925 0)
(-0.00922152 0.000763224 0)
(-0.0097402 0.000469496 0)
(-0.0100066 0.000164795 0)
(-0.0100144 -0.000144255 0)
(-0.00976286 -0.000451009 0)
(-0.00925675 -0.000748653 0)
(-0.00850644 -0.0010301 0)
(-0.00752842 -0.00128797 0)
(-0.00634563 -0.0015147 0)
(-0.00498715 -0.00170235 0)
(-0.00348501 -0.00183724 0)
(-0.00190179 -0.00184922 0)
(-0.000550748 -0.00132188 0)
(-0.000593161 0.00251189 0)
(-0.0020477 0.00346093 0)
(-0.00375105 0.00343808 0)
(-0.00536511 0.003193 0)
(-0.0068262 0.0028498 0)
(-0.00810118 0.00243345 0)
(-0.00915929 0.00195812 0)
(-0.00997613 0.00143712 0)
(-0.0105338 0.000883414 0)
(-0.0108203 0.000309521 0)
(-0.0108294 -0.000272337 0)
(-0.0105601 -0.000849954 0)
(-0.0100171 -0.00141079 0)
(-0.00921072 -0.00194168 0)
(-0.00815778 -0.00242878 0)
(-0.00688203 -0.00285761 0)
(-0.00541413 -0.00321269 0)
(-0.00378783 -0.00346742 0)
(-0.00206911 -0.00349529 0)
(-0.000599452 -0.00253851 0)
(-0.000636588 0.003798 0)
(-0.00220047 0.00520228 0)
(-0.00403168 0.00516041 0)
(-0.005763 0.00478871 0)
(-0.00732617 0.00427037 0)
(-0.00868674 0.00364331 0)
(-0.00981323 0.00292936 0)
(-0.0106813 0.00214869 0)
(-0.0112734 0.00132053 0)
(-0.0115782 0.000463175 0)
(-0.0115895 -0.000405771 0)
(-0.0113063 -0.00126881 0)
(-0.0107325 -0.00210787 0)
(-0.00987775 -0.00290374 0)
(-0.008758 -0.00363582 0)
(-0.00739676 -0.00428219 0)
(-0.00582527 -0.0048189 0)
(-0.00407871 -0.00520549 0)
(-0.00222802 -0.0052547 0)
(-0.000644943 -0.00383914 0)
(-0.000697285 0.00518683 0)
(-0.00241044 0.00708453 0)
(-0.00441409 0.00701881 0)
(-0.00630324 0.0065057 0)
(-0.00800275 0.0057942 0)
(-0.00947635 0.00493716 0)
(-0.0106921 0.00396531 0)
(-0.0116264 0.00290636 0)
(-0.0122628 0.00178603 0)
(-0.0125912 0.000628102 0)
(-0.0126059 -0.000544954 0)
(-0.0123055 -0.00171097 0)
(-0.0116931 -0.00284687 0)
(-0.0107764 -0.00392766 0)
(-0.00956992 -0.00492573 0)
(-0.00809588 -0.00581088 0)
(-0.00638581 -0.0065493 0)
(-0.00447679 -0.00708433 0)
(-0.0024472 -0.00716096 0)
(-0.000708479 -0.00524768 0)
(-0.000779581 0.00672361 0)
(-0.0026932 0.00916574 0)
(-0.00492628 0.00906829 0)
(-0.00702344 0.00839191 0)
(-0.0089004 0.00746073 0)
(-0.010519 0.00634586 0)
(-0.0118475 0.00508883 0)
(-0.0128643 0.00372593 0)
(-0.0135556 0.00228948 0)
(-0.0139132 0.000808244 0)
(-0.0139326 -0.000691404 0)
(-0.0136121 -0.00218374 0)
(-0.0129529 -0.00364166 0)
(-0.01196 -0.00503487 0)
(-0.0106445 -0.00632863 0)
(-0.00902606 -0.00748332 0)
(-0.00713553 -0.00845305 0)
(-0.00501187 -0.00916113 0)
(-0.00274345 -0.00927465 0)
(-0.000794881 -0.00681104 0)
(-0.000887621 0.00845709 0)
(-0.00306276 0.011509 0)
(-0.00559223 0.0113668 0)
(-0.00795424 0.0104957 0)
(-0.0100529 0.00930767 0)
(-0.0118488 0.00789716 0)
(-0.0133123 0.00631926 0)
(-0.014426 0.00462003 0)
(-0.0151809 0.00283838 0)
(-0.0155724 0.001007 0)
(-0.0155982 -0.0008455 0)
(-0.0152561 -0.00269172 0)
(-0.0145445 -0.00450226 0)
(-0.0134637 -0.00624268 0)
(-0.0120189 -0.00787115 0)
(-0.0102246 -0.00933725 0)
(-0.00810857 -0.0105799 0)
(-0.00571087 -0.0114967 0)
(-0.00313267 -0.0116626 0)
(-0.000908901 -0.00858114 0)
(-0.00102758 0.0104458 0)
(-0.00353917 0.0141895 0)
(-0.00644506 0.0139814 0)
(-0.00913662 0.0128698 0)
(-0.0115038 0.0113735 0)
(-0.0135078 0.009617 0)
(-0.0151247 0.00767281 0)
(-0.0163453 0.00559821 0)
(-0.0171687 0.0034381 0)
(-0.0175972 0.00122722 0)
(-0.0176314 -0.00100636 0)
(-0.0172689 -0.00323665 0)
(-0.0165039 -0.00543484 0)
(-0.0153289 -0.00756446 0)
(-0.0137395 -0.00957734 0)
(-0.01174 -0.0114109 0)
(-0.00935116 -0.0129845 0)
(-0.00661152 -0.0141619 0)
(-0.00363782 -0.0144053 0)
(-0.00105765 -0.0106212 0)
(-0.00120898 0.0127636 0)
(-0.00415254 0.0173002 0)
(-0.0075331 0.0169909 0)
(-0.0106283 0.0155726 0)
(-0.0133117 0.0136962 0)
(-0.01555 0.011527 0)
(-0.0173312 0.00915994 0)
(-0.0186608 0.0066646 0)
(-0.0195519 0.00409039 0)
(-0.0200169 0.00147071 0)
(-0.0200621 -0.00117124 0)
(-0.0196846 -0.00381567 0)
(-0.0188723 -0.00643899 0)
(-0.0176062 -0.00900652 0)
(-0.0158658 -0.0114657 0)
(-0.0136381 -0.0137409 0)
(-0.0109289 -0.0157268 0)
(-0.00776926 -0.0172409 0)
(-0.00429377 -0.0176038 0)
(-0.00125216 -0.0130122 0)
(-0.00144686 0.0155081 0)
(-0.00494931 0.0209601 0)
(-0.00892828 0.0204904 0)
(-0.0125117 0.0186667 0)
(-0.0155566 0.0163096 0)
(-0.0180447 0.0136398 0)
(-0.0199873 0.0107806 0)
(-0.0214149 0.00781411 0)
(-0.0223627 0.00479085 0)
(-0.0228588 0.00173739 0)
(-0.0229178 -0.00133462 0)
(-0.0225367 -0.0044187 0)
(-0.0216947 -0.00750355 0)
(-0.0203557 -0.0105626 0)
(-0.0184745 -0.0135436 0)
(-0.0160088 -0.0163582 0)
(-0.0129359 -0.0188706 0)
(-0.00926751 -0.0208357 0)
(-0.00515505 -0.0213886 0)
(-0.00151018 -0.0158625 0)
(-0.00176612 0.0188141 0)
(-0.00600373 0.0253266 0)
(-0.0107405 0.024595 0)
(-0.0149061 0.0222163 0)
(-0.0183473 0.0192362 0)
(-0.0210798 0.0159508 0)
(-0.0231571 0.0125168 0)
(-0.0246506 0.00902674 0)
(-0.0256286 0.00552547 0)
(-0.0261424 0.00202392 0)
(-0.0262182 -0.0014873 0)
(-0.0258535 -0.00502505 0)
(-0.0250163 -0.00860063 0)
(-0.0236463 -0.0122059 0)
(-0.0216622 -0.0157974 0)
(-0.0189746 -0.0192791 0)
(-0.0155096 -0.0224797 0)
(-0.011235 -0.0250698 0)
(-0.00631008 -0.0259351 0)
(-0.00186159 -0.0193252 0)
(-0.00221017 0.0228792 0)
(-0.00743946 0.0306156 0)
(-0.0131421 0.0294436 0)
(-0.0179872 0.0262795 0)
(-0.0218326 0.0224748 0)
(-0.0247651 0.0184247 0)
(-0.0269115 0.0143216 0)
(-0.0284063 0.0102597 0)
(-0.0293656 0.00626572 0)
(-0.0298716 0.00232192 0)
(-0.0299668 -0.00161526 0)
(-0.02965 -0.00559911 0)
(-0.0288756 -0.00967764 0)
(-0.0275525 -0.0138765 0)
(-0.0255486 -0.0181772 0)
(-0.0227027 -0.0224888 0)
(-0.0188526 -0.0266068 0)
(-0.0138758 -0.0300918 0)
(-0.00790899 -0.0314861 0)
(-0.00235966 -0.023629 0)
(-0.00285947 0.0280104 0)
(-0.00947224 0.0371324 0)
(-0.0164111 0.0351986 0)
(-0.0220155 0.0308896 0)
(-0.0262148 0.0259763 0)
(-0.0292342 0.0209747 0)
(-0.0313223 0.0161032 0)
(-0.0327065 0.0114368 0)
(-0.0335664 0.00696271 0)
(-0.0340234 0.00261558 0)
(-0.0341392 -0.00169857 0)
(-0.0339159 -0.00608532 0)
(-0.0332936 -0.010647 0)
(-0.0321459 -0.0154648 0)
(-0.0302755 -0.0205721 0)
(-0.0274184 -0.0259123 0)
(-0.0232668 -0.0312675 0)
(-0.0175232 -0.0360703 0)
(-0.0102198 -0.038388 0)
(-0.00310615 -0.0291379 0)
(-0.00387355 0.0347198 0)
(-0.0124978 0.0453178 0)
(-0.0210074 0.0420305 0)
(-0.0273794 0.0360139 0)
(-0.0317624 0.0296019 0)
(-0.0346392 0.0234306 0)
(-0.0364491 0.0177042 0)
(-0.0375463 0.0124364 0)
(-0.0381862 0.00754063 0)
(-0.0385324 0.00287902 0)
(-0.0386671 -0.00171107 0)
(-0.0385979 -0.00640376 0)
(-0.0382545 -0.011375 0)
(-0.0374771 -0.0167896 0)
(-0.0359967 -0.022774 0)
(-0.0334149 -0.0293627 0)
(-0.0292006 -0.0363856 0)
(-0.0227335 -0.0431678 0)
(-0.0137472 -0.0471421 0)
(-0.00431019 -0.0364802 0)
(-0.0055917 0.0439382 0)
(-0.01728 0.0558068 0)
(-0.0277034 0.0500588 0)
(-0.034646 0.0414676 0)
(-0.0388098 0.033053 0)
(-0.041126 0.0254922 0)
(-0.0423086 0.0188759 0)
(-0.0428617 0.0130793 0)
(-0.0431151 0.00789148 0)
(-0.0432662 0.0030736 0)
(-0.0434128 -0.00162174 0)
(-0.0435705 -0.00644901 0)
(-0.0436697 -0.0116737 0)
(-0.0435349 -0.017574 0)
(-0.0428397 -0.0244265 0)
(-0.0410405 -0.032454 0)
(-0.0372996 -0.0416764 0)
(-0.0304462 -0.0514463 0)
(-0.0194917 -0.0584544 0)
(-0.00643261 -0.0468347 0)
(-0.00878278 0.057507 0)
(-0.0253538 0.0694193 0)
(-0.0377628 0.0591672 0)
(-0.0445561 0.0467416 0)
(-0.0476651 0.0357572 0)
(-0.0487163 0.0266717 0)
(-0.0487559 0.0192561 0)
(-0.0484211 0.0131233 0)
(-0.0480795 0.00787538 0)
(-0.0479306 0.00314686 0)
(-0.0480724 -0.00139943 0)
(-0.0485299 -0.00609721 0)
(-0.0492565 -0.011304 0)
(-0.050103 -0.0174315 0)
(-0.0507462 -0.024968 0)
(-0.050552 -0.0344667 0)
(-0.0483492 -0.0464091 0)
(-0.0421483 -0.060555 0)
(-0.0294513 -0.0730577 0)
(-0.0105131 -0.0624757 0)
(-0.0151527 0.0790766 0)
(-0.0396041 0.0867398 0)
(-0.0526578 0.068463 0)
(-0.0573408 0.0506477 0)
(-0.0577892 0.0366845 0)
(-0.0564589 0.0262214 0)
(-0.0546507 0.0183522 0)
(-0.0530094 0.0122685 0)
(-0.0518371 0.00732611 0)
(-0.0512674 0.00302949 0)
(-0.0513647 -0.00102797 0)
(-0.0521625 -0.00523341 0)
(-0.053667 -0.010011 0)
(-0.0558293 -0.0158929 0)
(-0.058461 -0.0236092 0)
(-0.0610295 -0.0341951 0)
(-0.0621939 -0.0490112 0)
(-0.0590609 -0.0690252 0)
(-0.0467938 -0.0911092 0)
(-0.0184422 -0.0881125 0)
(-0.0267117 0.116527 0)
(-0.0618 0.106913 0)
(-0.0685228 0.0746206 0)
(-0.0662647 0.0503657 0)
(-0.0611247 0.0339208 0)
(-0.0557394 0.0229804 0)
(-0.0511949 0.0154961 0)
(-0.0477893 0.0101449 0)
(-0.0455475 0.00604007 0)
(-0.0444137 0.00261217 0)
(-0.0443644 -0.000548432 0)
(-0.0454293 -0.00382379 0)
(-0.0476906 -0.00763127 0)
(-0.05128 -0.0125499 0)
(-0.0563348 -0.0194905 0)
(-0.062804 -0.0300234 0)
(-0.069715 -0.0469289 0)
(-0.0740745 -0.0741094 0)
(-0.0700246 -0.11344 0)
(-0.0291123 -0.137085 0)
(-0.0274974 0.194471 0)
(-0.0592548 0.12426 0)
(-0.0343621 0.0681949 0)
(-0.0143733 0.0400765 0)
(0.000657031 0.024589 0)
(0.0118544 0.0155985 0)
(0.0197665 0.0100979 0)
(0.0251426 0.00646952 0)
(0.0285285 0.00385592 0)
(0.030325 0.00177334 0)
(0.0307034 -9.53607e-05 0)
(0.0296659 -0.00202345 0)
(0.027076 -0.00430448 0)
(0.0226019 -0.00740148 0)
(0.0156602 -0.0121871 0)
(0.00531542 -0.0205341 0)
(-0.00910363 -0.0367339 0)
(-0.0278933 -0.0701593 0)
(-0.0541391 -0.135713 0)
(-0.00871584 -0.213755 0)
(0.217406 0.128143 0)
(0.240191 0.0729468 0)
(0.329222 0.0351845 0)
(0.373591 0.0181812 0)
(0.395515 0.0100893 0)
(0.408558 0.00593322 0)
(0.416816 0.0036724 0)
(0.422086 0.00230642 0)
(0.425358 0.00139697 0)
(0.427172 0.000722958 0)
(0.427773 0.000148397 0)
(0.427221 -0.000423348 0)
(0.425405 -0.0010848 0)
(0.421954 -0.00198781 0)
(0.416032 -0.00345351 0)
(0.405731 -0.00625559 0)
(0.386977 -0.0123799 0)
(0.349452 -0.027462 0)
(0.253751 -0.0652739 0)
(0.233445 -0.124756 0)
)
;

boundaryField
{
    movingWall
    {
        type            fixedValue;
        value           uniform (1 0 0);
    }
    fixedWalls
    {
        type            noSlip;
    }
    frontAndBack
    {
        type            empty;
    }
}


// ************************************************************************* //
