/*--------------------------------*- C++ -*----------------------------------*\
  =========                 |
  \\      /  F ield         | OpenFOAM: The Open Source CFD Toolbox
   \\    /   O peration     | Website:  https://openfoam.org
    \\  /    A nd           | Version:  11
     \\/     M anipulation  |
\*---------------------------------------------------------------------------*/
FoamFile
{
    format      ascii;
    class       volScalarField;
    location    "0.2";
    object      p;
}
// * * * * * * * * * * * * * * * * * * * * * * * * * * * * * * * * * * * * * //

dimensions      [0 2 -2 0 0 0 0];

internalField   nonuniform List<scalar> 
400
(
-5.747e-09
-0.00021533
0.000154798
0.0010366
0.00238406
0.00415468
0.00629371
0.00873617
0.0114088
0.0142317
0.0171195
0.0199839
0.0227349
0.0252836
0.0275448
0.0294392
0.0308975
0.0318644
0.0322843
0.0320794
0.000209159
-1.94792e-05
0.000361214
0.00123758
0.00256396
0.00430572
0.00641157
0.00881824
0.0114537
0.0142391
0.01709
0.0199187
0.0226361
0.0251539
0.0273874
0.0292585
0.0307005
0.0316653
0.0320972
0.0318784
-0.000154571
-0.000425281
-4.08709e-05
0.00085558
0.00221181
0.0039934
0.00614833
0.00861216
0.0113117
0.0141664
0.0170905
0.0199944
0.0227867
0.0253767
0.0276768
0.0296055
0.0310933
0.03209
0.0325315
0.0322696
-0.0010486
-0.00135825
-0.00095976
-1.63673e-05
0.00141286
0.00329091
0.00556269
0.00816048
0.0110077
0.0140207
0.0171098
0.0201816
0.0231401
0.0258895
0.0283361
0.0303917
0.03198
0.0330445
0.0335112
0.0332105
-0.00248503
-0.00283213
-0.00240439
-0.00138401
0.000162577
0.00219415
0.00465057
0.00745881
0.0105371
0.0137965
0.0171421
0.0204746
0.0236916
0.0266892
0.0293647
0.0316198
0.0333672
0.0345407
0.0350544
0.0347172
-0.0045105
-0.00490143
-0.00442819
-0.00329662
-0.00158311
0.000664854
0.00337977
0.00648108
0.00987989
0.0134804
0.0171808
0.0208746
0.0244506
0.027795
0.0307927
0.0333307
0.0353062
0.0366381
0.0372239
0.0368447
-0.00719071
-0.00763609
-0.00709882
-0.00581652
-0.00387966
-0.0013449
0.00170997
0.0051944
0.00901041
0.0130539
0.0172154
0.0213797
0.0254261
0.0292281
0.032655
0.0355744
0.0378614
0.0394133
0.0401024
0.0396715
-0.0106144
-0.0111282
-0.0105045
-0.00902403
-0.00679768
-0.00389543
-0.000409176
0.00355763
0.00789607
0.0124929
0.0172302
0.0219846
0.0266248
0.0310107
0.0349924
0.0384125
0.0411155
0.0429666
0.0438005
0.0433054
-0.0148991
-0.0154992
-0.01476
-0.0130221
-0.0104259
-0.00706125
-0.00303905
0.00152079
0.0064967
0.0117659
0.0172032
0.0226779
0.0280495
0.0331639
0.0378499
0.0419185
0.0451727
0.0474301
0.0484671
0.0478924
-0.0201993
-0.0209084
-0.0200135
-0.0179399
-0.014873
-0.0109311
-0.00625133
-0.000974115
0.00476485
0.0108341
0.0171035
0.0234386
0.0296934
0.0357023
0.0412718
0.0461754
0.0501605
0.0529743
0.0543013
0.0536293
-0.0267198
-0.0275661
-0.0264554
-0.0239382
-0.0202684
-0.0156069
-0.0101258
-0.00399086
0.0026473
0.00965094
0.0168896
0.024232
0.0315337
0.0386245
0.0452921
0.0512685
0.0562295
0.0598188
0.061573
0.0607873
-0.0347398
-0.035755
-0.0343321
-0.0312146
-0.0267634
-0.0212009
-0.0147459
-0.00759432
8.85796e-05
0.00816348
0.0165077
0.0250037
0.0335216
0.0418996
0.0499184
0.0572715
0.0635478
0.0682431
0.0706535
0.0697543
-0.0446588
-0.0458661
-0.0439658
-0.040011
-0.0345287
-0.0278287
-0.0201896
-0.0118419
-0.00296215
0.00631658
0.0158916
0.0256744
0.0355695
0.045447
0.0551048
0.0642169
0.0722827
0.0785959
0.0820627
0.0811174
-0.0570866
-0.0584577
-0.0557816
-0.0506185
-0.0437476
-0.0355958
-0.0265145
-0.0167687
-0.00653889
0.00406111
0.0149654
0.0261354
0.0375369
0.0491076
0.0607077
0.0720416
0.0825521
0.0912858
0.0965349
0.0958412
-0.0730383
-0.0743523
-0.0703377
-0.0633754
-0.054597
-0.0445723
-0.033731
-0.022364
-0.010639
0.00136937
0.0136536
0.0262495
0.0392172
0.0526094
0.0664202
0.0804871
0.0943161
0.106743
0.115157
0.115708
-0.0944016
-0.0948141
-0.0883577
-0.0786508
-0.0672097
-0.0547478
-0.0417601
-0.0285345
-0.0151924
-0.00173901
0.0119026
0.025865
0.0403364
0.0555348
0.071681
0.088921
0.107123
0.125224
0.139559
0.144204
-0.125222
-0.121929
-0.110815
-0.0968241
-0.0816014
-0.0659437
-0.050351
-0.0350336
-0.0200014
-0.00514231
0.00973513
0.0248746
0.0406094
0.0573553
0.0756321
0.0961048
0.119538
0.145832
0.170835
0.187043
-0.174554
-0.158213
-0.138525
-0.117823
-0.0971884
-0.0774052
-0.0587722
-0.0412349
-0.0245664
-0.00846772
0.00739795
0.0234098
0.0400043
0.0577833
0.0775665
0.100646
0.129316
0.165948
0.206557
0.255649
-0.260222
-0.199875
-0.166851
-0.137108
-0.110011
-0.0860118
-0.0647107
-0.0454546
-0.0276496
-0.0107793
0.00562981
0.0220573
0.039034
0.0572701
0.0779056
0.103042
0.137394
0.189308
0.250009
0.400157
-0.477711
-0.235218
-0.169418
-0.136461
-0.108591
-0.0844828
-0.0635739
-0.0447721
-0.0273333
-0.0107632
0.00536734
0.0214948
0.0381405
0.0560674
0.0766926
0.103188
0.143315
0.21665
0.353372
0.691778
)
;

boundaryField
{
    movingWall
    {
        type            zeroGradient;
    }
    fixedWalls
    {
        type            zeroGradient;
    }
    frontAndBack
    {
        type            empty;
    }
}


// ************************************************************************* //
