/*--------------------------------*- C++ -*----------------------------------*\
  =========                 |
  \\      /  F ield         | OpenFOAM: The Open Source CFD Toolbox
   \\    /   O peration     | Website:  https://openfoam.org
    \\  /    A nd           | Version:  11
     \\/     M anipulation  |
\*---------------------------------------------------------------------------*/
FoamFile
{
    format      ascii;
    class       surfaceScalarField;
    location    "0.2";
    object      phi;
}
// * * * * * * * * * * * * * * * * * * * * * * * * * * * * * * * * * * * * * //

dimensions      [0 3 -1 0 0 0 0];

internalField   nonuniform List<scalar> 
760
(
-3.327e-06
3.327e-06
-9.82601e-06
6.49901e-06
-1.68841e-05
7.05814e-06
-2.35862e-05
6.702e-06
-2.96206e-05
6.03444e-06
-3.48124e-05
5.19182e-06
-3.9027e-05
4.21457e-06
-4.21572e-05
3.13025e-06
-4.41225e-05
1.96527e-06
-4.48687e-05
7.46165e-07
-4.43684e-05
-5.00213e-07
-4.26224e-05
-1.74601e-06
-3.96606e-05
-2.96181e-06
-3.55445e-05
-4.11612e-06
-3.03692e-05
-5.17533e-06
-2.42665e-05
-6.10273e-06
-1.74197e-05
-6.84681e-06
-1.01625e-05
-7.25714e-06
-3.45374e-06
-6.70878e-06
-3.45374e-06
-6.64086e-06
9.96786e-06
-1.77239e-05
1.7582e-05
-2.95132e-05
1.88475e-05
-4.07118e-05
1.79005e-05
-5.07979e-05
1.61206e-05
-5.94654e-05
1.38593e-05
-6.64859e-05
1.12351e-05
-7.16827e-05
8.32702e-06
-7.49258e-05
5.20833e-06
-7.61301e-05
1.95049e-06
-7.52553e-05
-1.37501e-06
-7.23062e-05
-4.69509e-06
-6.73356e-05
-7.93243e-06
-6.04476e-05
-1.10041e-05
-5.18026e-05
-1.38204e-05
-4.16247e-05
-1.62806e-05
-3.02313e-05
-1.82402e-05
-1.81749e-05
-1.93135e-05
-6.8144e-06
-1.80693e-05
-1.02681e-05
-7.76528e-06
1.77331e-05
-2.05083e-05
3.03251e-05
-3.39669e-05
3.23061e-05
-4.67118e-05
3.06454e-05
-5.81709e-05
2.75797e-05
-6.80038e-05
2.36923e-05
-7.59581e-05
1.91893e-05
-8.18403e-05
1.42092e-05
-8.55097e-05
8.87777e-06
-8.68748e-05
3.31558e-06
-8.58912e-05
-2.35864e-06
-8.25627e-05
-8.02356e-06
-7.6944e-05
-1.35512e-05
-6.91454e-05
-1.88026e-05
-5.93406e-05
-2.36252e-05
-4.77763e-05
-2.78449e-05
-3.48049e-05
-3.12116e-05
-2.1035e-05
-3.30834e-05
-7.96784e-06
-3.11364e-05
-1.8236e-05
-8.42271e-06
2.61558e-05
-2.22867e-05
4.4189e-05
-3.68936e-05
4.69129e-05
-5.06861e-05
4.4438e-05
-6.30563e-05
3.99499e-05
-7.36491e-05
3.42851e-05
-8.22055e-05
2.77456e-05
-8.85309e-05
2.05346e-05
-9.24853e-05
1.28322e-05
-9.39771e-05
4.80741e-06
-9.29594e-05
-3.37636e-06
-8.94302e-05
-1.15527e-05
-8.34358e-05
-1.95456e-05
-7.50783e-05
-2.71601e-05
-6.4526e-05
-3.41775e-05
-5.20284e-05
-4.03426e-05
-3.79534e-05
-4.52866e-05
-2.29539e-05
-4.8083e-05
-8.67864e-06
-4.54116e-05
-2.69146e-05
-9.20848e-06
3.53643e-05
-2.43953e-05
5.93759e-05
-4.03674e-05
6.2885e-05
-5.5403e-05
5.94736e-05
-6.88435e-05
5.33904e-05
-8.03181e-05
4.57596e-05
-8.95666e-05
3.69942e-05
-9.64008e-05
2.73687e-05
-0.000100688
1.71191e-05
-0.00010234
6.45933e-06
-0.000101307
-4.4088e-06
-9.75783e-05
-1.52816e-05
-9.1183e-05
-2.59409e-05
-8.22037e-05
-3.61394e-05
-7.07921e-05
-4.55891e-05
-5.71917e-05
-5.39431e-05
-4.17863e-05
-6.06919e-05
-2.52918e-05
-6.45775e-05
-9.55275e-06
-6.11507e-05
-3.64674e-05
-1.02695e-05
4.56338e-05
-2.72029e-05
7.63093e-05
-4.49637e-05
8.06458e-05
-6.16139e-05
7.61238e-05
-7.64279e-05
6.82044e-05
-8.90191e-05
5.83509e-05
-9.91342e-05
4.71093e-05
-0.000106601
3.48355e-05
-0.000111303
2.18213e-05
-0.000113163
8.3194e-06
-0.00011213
-5.44187e-06
-0.000108177
-1.92347e-05
-0.000101307
-3.28111e-05
-9.15679e-05
-4.58784e-05
-7.90784e-05
-5.80785e-05
-6.40627e-05
-6.89588e-05
-4.69181e-05
-7.78365e-05
-2.84435e-05
-8.30521e-05
-1.07472e-05
-7.8847e-05
-4.72145e-05
-1.16733e-05
5.73071e-05
-3.0888e-05
9.5524e-05
-5.09568e-05
0.000100715
-6.96585e-05
9.48255e-05
-8.61862e-05
8.47322e-05
-0.000100144
7.2309e-05
-0.000111302
5.82671e-05
-0.000119522
4.30553e-05
-0.000124721
2.70199e-05
-0.000126841
1.04394e-05
-0.000125832
-6.45009e-06
-0.000121648
-2.3419e-05
-0.000114249
-4.02105e-05
-0.000103625
-5.65019e-05
-8.98355e-05
-7.18682e-05
-7.30588e-05
-8.57355e-05
-5.36921e-05
-9.72032e-05
-3.26352e-05
-0.000104109
-1.23483e-05
-9.91339e-05
-5.95628e-05
-1.34999e-05
7.08071e-05
-3.56503e-05
0.000117674
-5.86407e-05
0.000123705
-7.98817e-05
0.000116067
-9.84752e-05
0.000103326
-0.000114035
8.78692e-05
-0.000126384
7.06159e-05
-0.00013545
5.21212e-05
-0.000141209
3.27785e-05
-0.00014364
1.28708e-05
-0.000142702
-7.38823e-06
-0.000138318
-2.7803e-05
-0.000130386
-4.81422e-05
-0.000118806
-6.80819e-05
-0.00010353
-8.71442e-05
-8.46447e-05
-0.000104621
-6.25129e-05
-0.000119335
-3.81448e-05
-0.000128477
-1.44682e-05
-0.000122811
-7.4031e-05
-1.58702e-05
8.66773e-05
-4.17795e-05
0.000143584
-6.8426e-05
0.000150351
-9.27453e-05
0.000140386
-0.000113749
0.000124329
-0.000131101
0.000105222
-0.000144731
8.42454e-05
-0.000154682
6.20726e-05
-0.00016103
3.91264e-05
-0.000163819
1.56595e-05
-0.000163024
-8.18344e-06
-0.000158532
-3.22948e-05
-0.000150151
-5.65233e-05
-0.000137638
-8.05943e-05
-0.000120771
-0.000104012
-9.94608e-05
-0.000125931
-7.39648e-05
-0.000144831
-4.53909e-05
-0.000157051
-1.72823e-05
-0.000150919
-9.13133e-05
-1.89766e-05
0.000105654
-4.97185e-05
0.000174326
-8.09146e-05
0.000181547
-0.000108895
0.000168366
-0.000132608
0.000148042
-0.00015185
0.000124464
-0.000166744
9.91391e-05
-0.000177527
7.28563e-05
-0.000184434
4.60333e-05
-0.000187611
1.88362e-05
-0.000187067
-8.72705e-06
-0.000182648
-3.67141e-05
-0.000174035
-6.51362e-05
-0.000160778
-9.38516e-05
-0.000142372
-0.000122417
-0.000118419
-0.000149885
-8.89263e-05
-0.000174323
-5.50342e-05
-0.000190943
-2.10813e-05
-0.000184872
-0.000112395
-2.31387e-05
0.000128793
-6.01663e-05
0.000211353
-9.70089e-05
0.00021839
-0.000129245
0.000200602
-0.000155853
0.000174649
-0.000176908
0.000145519
-0.000192868
0.000115099
-0.00020428
8.42686e-05
-0.000211617
5.33708e-05
-0.000215181
2.23997e-05
-0.000215041
-8.86702e-06
-0.000210998
-4.07569e-05
-0.000202574
-7.35604e-05
-0.000189025
-0.0001074
-0.000169421
-0.000142022
-0.00014283
-0.000176476
-0.00010875
-0.000208403
-6.81578e-05
-0.000231535
-2.63724e-05
-0.000226657
-0.000138767
-2.89146e-05
0.000157707
-7.42647e-05
0.000256703
-0.000118091
0.000262216
-0.00015511
0.000237621
-0.000184549
0.000204088
-0.000207029
0.000167999
-0.000223565
0.000131635
-0.000235169
9.58728e-05
-0.000242658
6.08593e-05
-0.00024655
2.62916e-05
-0.000247012
-8.4046e-06
-0.000243813
-4.39564e-05
-0.000236287
-8.1086e-05
-0.000223314
-0.000120373
-0.000203347
-0.000161989
-0.000174593
-0.00020523
-0.000135564
-0.000247432
-8.66111e-05
-0.000280488
-3.41015e-05
-0.000279167
-0.000172869
-3.73355e-05
0.000195043
-9.39447e-05
0.000313312
-0.000146317
0.000314588
-0.000188375
0.000279679
-0.000220091
0.000235805
-0.000243088
0.000190996
-0.000259256
0.000147804
-0.000270274
0.00010689
-0.000277414
6.79998e-05
-0.000281482
3.03594e-05
-0.000282785
-7.10215e-06
-0.000281091
-4.56503e-05
-0.000275559
-8.66176e-05
-0.000264637
-0.000131295
-0.000245967
-0.000180658
-0.000216441
-0.000234757
-0.000172776
-0.000291096
-0.000113677
-0.000339587
-4.61583e-05
-0.000346685
-0.000219027
-5.04164e-05
0.000245459
-0.000122569
0.000385465
-0.000185068
0.000377087
-0.000231708
0.000326319
-0.000264224
0.00026832
-0.000285973
0.000212746
-0.00030016
0.000161991
-0.000309338
0.000116069
-0.000315332
7.3993e-05
-0.000319275
3.43028e-05
-0.000321661
-4.71638e-06
-0.00032233
-4.49815e-05
-0.000320345
-8.8602e-05
-0.000313774
-0.000137867
-0.000299345
-0.000195087
-0.000272132
-0.00026197
-0.0002258
-0.000337429
-0.000155314
-0.000410073
-6.65342e-05
-0.000435465
-0.000285561
-7.22668e-05
0.000317726
-0.000166036
0.000479235
-0.000239451
0.000450502
-0.000288497
0.000375366
-0.000318615
0.000298438
-0.000335994
0.000230124
-0.000345626
0.000171624
-0.000351085
0.000121527
-0.000354739
7.76468e-05
-0.000358029
3.7593e-05
-0.000361651
-1.09399e-06
-0.000365637
-4.0996e-05
-0.000369158
-8.50806e-05
-0.000370181
-0.000136845
-0.000364735
-0.000200533
-0.000345812
-0.000280894
-0.000302448
-0.000380793
-0.000221969
-0.000490552
-0.000103626
-0.000553808
-0.000389187
-0.000111276
0.000429002
-0.000233884
0.000601843
-0.000315385
0.000532002
-0.000360525
0.000420506
-0.000381772
0.000319684
-0.000389424
0.000237777
-0.000390536
0.000172735
-0.000389546
0.000120537
-0.000389125
7.72259e-05
-0.000390836
3.93041e-05
-0.000395494
3.56423e-06
-0.000403498
-3.2992e-05
-0.000414453
-7.41258e-05
-0.000426871
-0.000124427
-0.000436971
-0.000190433
-0.000436358
-0.000281507
-0.000408463
-0.000408687
-0.000327353
-0.000571662
-0.000172637
-0.000708524
-0.000561824
-0.000182939
0.00061194
-0.000334038
0.000752943
-0.000407544
0.000605508
-0.000432047
0.000445009
-0.000431226
0.000318863
-0.000419846
0.000226397
-0.000406257
0.000159147
-0.000394815
0.000109095
-0.000387709
7.01201e-05
-0.000386107
3.7702e-05
-0.000390703
8.16012e-06
-0.000402276
-2.14194e-05
-0.000421246
-5.5156e-05
-0.000447595
-9.8077e-05
-0.000479498
-0.00015853
-0.000509852
-0.000251153
-0.000518552
-0.000399987
-0.000463375
-0.00062684
-0.000286537
-0.000885361
-0.000848361
-0.00029329
0.00090523
-0.000420021
0.000879674
-0.000428125
0.000613612
-0.000390831
0.000407714
-0.000342309
0.000270341
-0.000296766
0.000180854
-0.000259669
0.00012205
-0.000232476
8.19026e-05
-0.000215145
5.27887e-05
-0.000207403
2.99602e-05
-0.000209325
1.00816e-05
-0.000221563
-9.18109e-06
-0.000245547
-3.11725e-05
-0.000283364
-6.02591e-05
-0.000337169
-0.000104726
-0.000406172
-0.00018215
-0.000476384
-0.000329774
-0.000495803
-0.000607421
-0.000383625
-0.000997539
-0.00123199
-0.000256411
0.00116164
-0.000134928
0.000758191
6.66395e-05
0.000412045
0.000232538
0.000241816
0.000356811
0.000146068
0.000447288
9.03774e-05
0.000511472
5.78656e-05
0.000555534
3.78409e-05
0.0005839
2.44222e-05
0.000599308
1.45526e-05
0.00060294
6.44979e-06
0.000594913
-1.15446e-06
0.000573376
-9.63541e-06
0.000534317
-2.11999e-05
0.000470313
-4.07228e-05
0.000369105
-8.09414e-05
0.000214751
-0.00017542
5.19414e-06
-0.000397865
-0.000115571
-0.000876774
-0.00134756
0.00116164
0.00191983
0.00233188
0.00257369
0.00271976
0.00281014
0.002868
0.00290584
0.00293027
0.00294482
0.00295127
0.00295012
0.00294048
0.00291928
0.00287856
0.00279762
0.0026222
0.00222433
0.00134756
)
;

boundaryField
{
    movingWall
    {
        type            calculated;
        value           uniform 0;
    }
    fixedWalls
    {
        type            calculated;
        value           uniform 0;
    }
    frontAndBack
    {
        type            empty;
    }
}


// ************************************************************************* //
