/*--------------------------------*- C++ -*----------------------------------*\
  =========                 |
  \\      /  F ield         | OpenFOAM: The Open Source CFD Toolbox
   \\    /   O peration     | Website:  https://openfoam.org
    \\  /    A nd           | Version:  11
     \\/     M anipulation  |
\*---------------------------------------------------------------------------*/
FoamFile
{
    format      ascii;
    class       volVectorField;
    location    "0.2";
    object      U;
}
// * * * * * * * * * * * * * * * * * * * * * * * * * * * * * * * * * * * * * //

dimensions      [0 1 -1 0 0 0 0];

internalField   nonuniform List<vector> 
400
(
(-0.000266299 0.000262461 0)
(-0.00123457 0.000550662 0)
(-0.00266409 0.000603525 0)
(-0.00406486 0.000573143 0)
(-0.0053454 0.000516104 0)
(-0.00647252 0.000444457 0)
(-0.00741686 0.00036138 0)
(-0.00815417 0.000269074 0)
(-0.00866568 0.000169728 0)
(-0.00893793 6.55865e-05 0)
(-0.00896278 -4.10432e-05 0)
(-0.00873754 -0.00014776 0)
(-0.00826522 -0.000252008 0)
(-0.00755491 -0.000351059 0)
(-0.00662222 -0.000442032 0)
(-0.00548992 -0.000521855 0)
(-0.00418779 -0.000586323 0)
(-0.00275158 -0.00062216 0)
(-0.00127984 -0.000570935 0)
(-0.000277417 -0.00027505 0)
(-0.000567948 0.00123598 0)
(-0.00231917 0.00227049 0)
(-0.00471679 0.0024481 0)
(-0.00705794 0.00232548 0)
(-0.00919905 0.00209455 0)
(-0.011083 0.00180178 0)
(-0.0126589 0.0014619 0)
(-0.0138859 0.00108486 0)
(-0.0147335 0.000680021 0)
(-0.0151802 0.000256661 0)
(-0.0152135 -0.000175865 0)
(-0.0148299 -0.000607901 0)
(-0.014035 -0.00102927 0)
(-0.0128443 -0.00142908 0)
(-0.0112842 -0.00179564 0)
(-0.00939326 -0.00211603 0)
(-0.00722302 -0.0023719 0)
(-0.00483431 -0.00251217 0)
(-0.00238008 -0.00233805 0)
(-0.000583338 -0.00127756 0)
(-0.000667636 0.00273613 0)
(-0.00269583 0.00473362 0)
(-0.00544217 0.00505571 0)
(-0.0081108 0.00479921 0)
(-0.0105455 0.00432123 0)
(-0.0126846 0.00371408 0)
(-0.0144713 0.00300974 0)
(-0.0158609 0.00222976 0)
(-0.01682 0.00139381 0)
(-0.0173257 0.000521034 0)
(-0.0173643 -0.000369597 0)
(-0.0169318 -0.00125865 0)
(-0.0160338 -0.00212565 0)
(-0.0146867 -0.00294852 0)
(-0.0129187 -0.00370323 0)
(-0.0107719 -0.00436268 0)
(-0.00830338 -0.00488793 0)
(-0.00557935 -0.00517761 0)
(-0.00276705 -0.00486107 0)
(-0.000685993 -0.00281532 0)
(-0.000722637 0.00436656 0)
(-0.00292741 0.00741016 0)
(-0.00591366 0.00787816 0)
(-0.00880616 0.00746837 0)
(-0.0114376 0.00671858 0)
(-0.0137441 0.00576951 0)
(-0.0156672 0.0046715 0)
(-0.0171613 0.0034585 0)
(-0.0181932 0.00216103 0)
(-0.01874 0.000808123 0)
(-0.018788 -0.000571788 0)
(-0.0183322 -0.00194982 0)
(-0.0173769 -0.00329534 0)
(-0.0159365 -0.00457494 0)
(-0.0140378 -0.00575155 0)
(-0.0117226 -0.00678258 0)
(-0.00904951 -0.00760679 0)
(-0.00608749 -0.00806893 0)
(-0.00301753 -0.00760957 0)
(-0.000745853 -0.00449058 0)
(-0.000789089 0.00612264 0)
(-0.00320306 0.0103021 0)
(-0.00647306 0.0109223 0)
(-0.00963159 0.0103389 0)
(-0.0124953 0.00928954 0)
(-0.0149972 0.00796841 0)
(-0.0170775 0.00644623 0)
(-0.0186914 0.00477045 0)
(-0.0198071 0.00298265 0)
(-0.0204031 0.0011213 0)
(-0.0204658 -0.000776689 0)
(-0.019989 -0.00267407 0)
(-0.0189743 -0.00453103 0)
(-0.0174323 -0.00630316 0)
(-0.0153859 -0.00793986 0)
(-0.0128745 -0.00938138 0)
(-0.00995695 -0.0105409 0)
(-0.00670651 -0.0112024 0)
(-0.00332419 -0.0105957 0)
(-0.00082015 -0.00630555 0)
(-0.000880061 0.00806044 0)
(-0.0035728 0.0134965 0)
(-0.00721548 0.0142776 0)
(-0.0107212 0.0134921 0)
(-0.0138848 0.0121028 0)
(-0.0166356 0.0103658 0)
(-0.0189137 0.00837609 0)
(-0.0206768 0.00619617 0)
(-0.0218967 0.00387886 0)
(-0.0225548 0.00147115 0)
(-0.0226385 -0.000983278 0)
(-0.02214 -0.00344082 0)
(-0.0210564 -0.00585422 0)
(-0.0193922 -0.00816906 0)
(-0.017163 -0.0103207 0)
(-0.0144026 -0.0122298 0)
(-0.0111684 -0.0137785 0)
(-0.00753819 -0.0146786 0)
(-0.00374064 -0.0139186 0)
(-0.000922922 -0.008324 0)
(-0.00100133 0.0102428 0)
(-0.00406049 0.0170905 0)
(-0.00818709 0.0180402 0)
(-0.0121375 0.0170107 0)
(-0.0156788 0.0152247 0)
(-0.0187371 0.0130123 0)
(-0.0212549 0.010498 0)
(-0.023196 0.00776149 0)
(-0.0245398 0.00486692 0)
(-0.025273 0.00186792 0)
(-0.0253855 -0.00118796 0)
(-0.0248674 -0.0042542 0)
(-0.0237096 -0.00727926 0)
(-0.0219062 -0.0102008 0)
(-0.0194605 -0.0129403 0)
(-0.0163951 -0.0153957 0)
(-0.0127614 -0.0174105 0)
(-0.00864065 -0.0186075 0)
(-0.00429732 -0.017692 0)
(-0.00106165 -0.0106193 0)
(-0.00116006 0.0127452 0)
(-0.0046937 0.0212015 0)
(-0.00943862 0.0223222 0)
(-0.0139462 0.0209867 0)
(-0.0179487 0.0187246 0)
(-0.0213721 0.015957 0)
(-0.0241666 0.0128449 0)
(-0.026309 0.00948834 0)
(-0.0277914 0.00596166 0)
(-0.0286108 0.00232205 0)
(-0.0287616 -0.0013839 0)
(-0.0282322 -0.00511227 0)
(-0.027004 -0.00881269 0)
(-0.0250554 -0.0124191 0)
(-0.0223691 -0.0158404 0)
(-0.0189469 -0.0189487 0)
(-0.0148255 -0.0215388 0)
(-0.0100841 -0.0231204 0)
(-0.0050329 -0.0220564 0)
(-0.00124641 -0.0132824 0)
(-0.00136753 0.0156626 0)
(-0.00551346 0.025975 0)
(-0.0110424 0.0272572 0)
(-0.0162371 0.0255231 0)
(-0.0207879 0.0226733 0)
(-0.0246278 0.0192439 0)
(-0.0277251 0.0154423 0)
(-0.0300797 0.0113912 0)
(-0.0317064 0.00717316 0)
(-0.0326188 0.00284353 0)
(-0.03282 -0.00155962 0)
(-0.0322963 -0.00600362 0)
(-0.0310167 -0.010448 0)
(-0.0289356 -0.0148305 0)
(-0.0260035 -0.0190519 0)
(-0.0221854 -0.0229568 0)
(-0.0174866 -0.0262779 0)
(-0.0119724 -0.028378 0)
(-0.00600705 -0.0271926 0)
(-0.00149355 -0.0164321 0)
(-0.00164224 0.0191202 0)
(-0.00658414 0.0315976 0)
(-0.0131071 0.0330069 0)
(-0.0191391 0.0307328 0)
(-0.0243238 0.0271373 0)
(-0.0286164 0.0229042 0)
(-0.0320212 0.0182996 0)
(-0.0345785 0.0134703 0)
(-0.0363393 0.00850243 0)
(-0.0373437 0.0034404 0)
(-0.0376089 -0.00169738 0)
(-0.0371207 -0.00690228 0)
(-0.0358312 -0.0121573 0)
(-0.0336614 -0.0174168 0)
(-0.0305118 -0.0225836 0)
(-0.0262865 -0.0274764 0)
(-0.0209297 -0.0317522 0)
(-0.0144657 -0.0345789 0)
(-0.00731681 -0.0333406 0)
(-0.00183093 -0.0202315 0)
(-0.0020161 0.0232923 0)
(-0.00801055 0.0383169 0)
(-0.0158001 0.0397693 0)
(-0.0228403 0.036736 0)
(-0.0287315 0.0321689 0)
(-0.0334814 0.0269439 0)
(-0.0371613 0.0213988 0)
(-0.0398775 0.0157026 0)
(-0.0417367 0.00993508 0)
(-0.0428189 0.00411618 0)
(-0.0431629 -0.00177155 0)
(-0.0427564 -0.00776143 0)
(-0.0415316 -0.0138796 0)
(-0.0393645 -0.0201184 0)
(-0.0360834 -0.0264018 0)
(-0.0314945 -0.0325348 0)
(-0.0254304 -0.0380876 0)
(-0.0178192 -0.0419703 0)
(-0.0091276 -0.0408312 0)
(-0.00230923 -0.0249194 0)
(-0.00254745 0.0284367 0)
(-0.00997099 0.0464743 0)
(-0.0193868 0.047788 0)
(-0.0276198 0.0436503 0)
(-0.0342529 0.0377873 0)
(-0.0394053 0.0313231 0)
(-0.0432652 0.0246759 0)
(-0.0460429 0.0180272 0)
(-0.0479259 0.0114322 0)
(-0.0490505 0.00486566 0)
(-0.0494866 -0.00174748 0)
(-0.0492289 -0.00850588 0)
(-0.0481884 -0.015506 0)
(-0.0461865 -0.0228097 0)
(-0.0429532 -0.0303982 0)
(-0.0381466 -0.0380947 0)
(-0.0314049 -0.0453885 0)
(-0.0224521 -0.0508565 0)
(-0.0117373 -0.050137 0)
(-0.00302766 -0.03087 0)
(-0.00335 0.0349612 0)
(-0.0127832 0.0565557 0)
(-0.024299 0.0573571 0)
(-0.0338959 0.051566 0)
(-0.0412206 0.0439433 0)
(-0.0466136 0.0359217 0)
(-0.0504585 0.0279943 0)
(-0.0531199 0.0203267 0)
(-0.0548962 0.0129182 0)
(-0.0559963 0.00566869 0)
(-0.0565319 -0.00158158 0)
(-0.0565122 -0.00902435 0)
(-0.0558327 -0.01686 0)
(-0.0542572 -0.025265 0)
(-0.0513963 -0.0343376 0)
(-0.0466993 -0.0439897 0)
(-0.0394851 -0.0536805 0)
(-0.0290714 -0.0615907 0)
(-0.0157132 -0.0619526 0)
(-0.00419582 -0.0387191 0)
(-0.00465905 0.0435592 0)
(-0.017039 0.0692699 0)
(-0.0312521 0.0688073 0)
(-0.0422907 0.0604881 0)
(-0.0500763 0.050455 0)
(-0.0553629 0.0404875 0)
(-0.0588438 0.0311068 0)
(-0.0610975 0.0224026 0)
(-0.0625602 0.0142656 0)
(-0.0635249 0.00648144 0)
(-0.0641526 -0.00122466 0)
(-0.0644785 -0.00916484 0)
(-0.0643986 -0.0176798 0)
(-0.0636353 -0.0271161 0)
(-0.0616807 -0.0377801 0)
(-0.0577257 -0.0498074 0)
(-0.0506039 -0.0627828 0)
(-0.0388789 -0.0745187 0)
(-0.0221815 -0.0773272 0)
(-0.00628038 -0.0496515 0)
(-0.0069809 0.0555097 0)
(-0.0238715 0.0856638 0)
(-0.0414148 0.0824366 0)
(-0.0536677 0.0702127 0)
(-0.0613145 0.0568967 0)
(-0.065834 0.0445562 0)
(-0.0683722 0.0336073 0)
(-0.0697725 0.0239474 0)
(-0.0706161 0.0152786 0)
(-0.071274 0.00722409 0)
(-0.0719544 -0.000632719 0)
(-0.0727313 -0.00874079 0)
(-0.0735339 -0.0176095 0)
(-0.0740939 -0.0278106 0)
(-0.073843 -0.0399755 0)
(-0.0717294 -0.0546909 0)
(-0.0659481 -0.0720231 0)
(-0.053788 -0.0897296 0)
(-0.0333322 -0.0977466 0)
(-0.0103004 -0.0659733 0)
(-0.0113921 0.0733422 0)
(-0.0353842 0.107197 0)
(-0.0564292 0.0982652 0)
(-0.0687768 0.0800548 0)
(-0.0749184 0.0623952 0)
(-0.0774659 0.047326 0)
(-0.0781327 0.0348617 0)
(-0.0780206 0.0245084 0)
(-0.0778084 0.0156695 0)
(-0.0778984 0.00775779 0)
(-0.0785176 0.000204767 0)
(-0.0797876 -0.00757133 0)
(-0.0817192 -0.0162404 0)
(-0.0841499 -0.0266234 0)
(-0.0866122 -0.039786 0)
(-0.0879992 -0.0570709 0)
(-0.0858943 -0.0796768 0)
(-0.0757699 -0.106232 0)
(-0.0525816 -0.124536 0)
(-0.0180859 -0.0920134 0)
(-0.0198597 0.101918 0)
(-0.0545452 0.134893 0)
(-0.0765776 0.114902 0)
(-0.0853398 0.0879972 0)
(-0.0869246 0.0650899 0)
(-0.0852797 0.0473522 0)
(-0.0825704 0.0338472 0)
(-0.0799644 0.0233999 0)
(-0.0780602 0.0149971 0)
(-0.0771618 0.00782024 0)
(-0.0774411 0.00117591 0)
(-0.0790437 -0.00560861 0)
(-0.0820954 -0.0132835 0)
(-0.0866666 -0.0228662 0)
(-0.0926594 -0.035877 0)
(-0.0993735 -0.054693 0)
(-0.10428 -0.0825965 0)
(-0.10113 -0.121097 0)
(-0.0808343 -0.157956 0)
(-0.0307785 -0.136974 0)
(-0.0335294 0.149637 0)
(-0.0786644 0.164973 0)
(-0.0877244 0.125213 0)
(-0.0826027 0.087987 0)
(-0.0732655 0.0607267 0)
(-0.0635828 0.0418721 0)
(-0.0552445 0.0288398 0)
(-0.0488208 0.019549 0)
(-0.0443921 0.0125666 0)
(-0.0418988 0.006926 0)
(-0.0413105 0.00191186 0)
(-0.0427018 -0.00311993 0)
(-0.0462734 -0.008857 0)
(-0.052398 -0.0163307 0)
(-0.0615914 -0.027354 0)
(-0.0742348 -0.0454013 0)
(-0.0889761 -0.0769115 0)
(-0.099753 -0.13004 0)
(-0.0995835 -0.197637 0)
(-0.0393135 -0.217949 0)
(-0.031302 0.239731 0)
(-0.0541997 0.182476 0)
(-0.00598952 0.110525 0)
(0.0324581 0.0685267 0)
(0.0606906 0.0432862 0)
(0.0816532 0.0278519 0)
(0.0968013 0.0183211 0)
(0.107396 0.0121507 0)
(0.11448 0.00785765 0)
(0.118766 0.00460684 0)
(0.120639 0.00187121 0)
(0.120209 -0.000763521 0)
(0.117319 -0.00374482 0)
(0.111399 -0.00778876 0)
(0.10129 -0.014408 0)
(0.0848887 -0.0271878 0)
(0.059859 -0.0546521 0)
(0.0281299 -0.114138 0)
(-0.0297865 -0.21918 0)
(0.00563292 -0.29976 0)
(0.242068 0.156915 0)
(0.298562 0.107905 0)
(0.425207 0.0600367 0)
(0.495892 0.0335745 0)
(0.5327 0.0191412 0)
(0.554625 0.0111825 0)
(0.568749 0.0068113 0)
(0.577993 0.00432046 0)
(0.584025 0.00278478 0)
(0.587811 0.00174381 0)
(0.589853 0.000955827 0)
(0.590356 0.000280602 0)
(0.589276 -0.000415757 0)
(0.586211 -0.00132065 0)
(0.580057 -0.00284253 0)
(0.568046 -0.00605663 0)
(0.543247 -0.0138447 0)
(0.49316 -0.0350919 0)
(0.35199 -0.092891 0)
(0.280458 -0.156924 0)
)
;

boundaryField
{
    movingWall
    {
        type            fixedValue;
        value           uniform (1 0 0);
    }
    fixedWalls
    {
        type            noSlip;
    }
    frontAndBack
    {
        type            empty;
    }
}


// ************************************************************************* //
