/*--------------------------------*- C++ -*----------------------------------*\
  =========                 |
  \\      /  F ield         | OpenFOAM: The Open Source CFD Toolbox
   \\    /   O peration     | Website:  https://openfoam.org
    \\  /    A nd           | Version:  11
     \\/     M anipulation  |
\*---------------------------------------------------------------------------*/
FoamFile
{
    format      ascii;
    class       volScalarField;
    location    "0.3";
    object      p;
}
// * * * * * * * * * * * * * * * * * * * * * * * * * * * * * * * * * * * * * //

dimensions      [0 2 -2 0 0 0 0];

internalField   nonuniform List<scalar> 
400
(
-3.22254e-10
-0.000336274
-0.000187534
0.000391008
0.00137052
0.00271835
0.00438947
0.00633022
0.00847964
0.01077
0.0131277
0.0154751
0.0177315
0.019816
0.0216498
0.0231583
0.024276
0.0249534
0.025152
0.0248142
0.000329218
-2.04026e-05
0.000151317
0.000728915
0.00167978
0.00298326
0.00460079
0.00648203
0.00856836
0.0107939
0.0130868
0.0153707
0.0175667
0.0195954
0.0213795
0.0228475
0.0239395
0.0246177
0.0248394
0.0244866
0.000191858
-0.000220844
-5.52197e-05
0.000529361
0.00149019
0.00280817
0.00444544
0.00635178
0.00846846
0.0107292
0.0130616
0.0153881
0.0176283
0.0197008
0.0215261
0.0230298
0.0241498
0.0248471
0.0250669
0.0246464
-0.000381145
-0.000855748
-0.000695276
-8.84805e-05
0.000913458
0.00229004
0.00400179
0.00599676
0.00821442
0.0105865
0.0130381
0.0154887
0.0178541
0.0200481
0.0219857
0.0235859
0.0247794
0.0255214
0.0257455
0.0252581
-0.00140451
-0.0019375
-0.00177288
-0.00112374
-4.84686e-05
0.00143018
0.00326976
0.00541504
0.00780225
0.0103596
0.0130083
0.0156632
0.0182341
0.0206278
0.0227502
0.0245097
0.0258263
0.0266456
0.0268893
0.0263369
-0.0029146
-0.00351463
-0.00333674
-0.00262185
-0.00143705
0.000191492
0.00221681
0.0045789
0.00720927
0.0100314
0.0129614
0.0159079
0.0187733
0.0214544
0.0238447
0.0258378
0.0273372
0.0282744
0.028555
0.027926
-0.0049621
-0.00564555
-0.00544486
-0.00463746
-0.00330252
-0.00147134
0.000802724
0.0034532
0.0064056
0.00957769
0.0128795
0.016213
0.0194715
0.02254
0.0252957
0.0276118
0.0293685
0.0304756
0.0308144
0.0300877
-0.00761797
-0.00840711
-0.00817256
-0.0072411
-0.00570923
-0.00361602
-0.00102366
0.00199298
0.0053522
0.0089655
0.0127369
0.0165616
0.0203237
0.0238945
0.0271319
0.0298819
0.0319918
0.0333382
0.0337649
0.0329107
-0.0109781
-0.0119021
-0.0116194
-0.0105246
-0.00873976
-0.00631564
-0.00332664
0.000141677
0.00399933
0.00815158
0.0124974
0.0169269
0.021316
0.0255227
0.0293826
0.0327073
0.0352983
0.0369814
0.0375396
0.0365175
-0.0151697
-0.0162667
-0.0159151
-0.0146052
-0.0124971
-0.00965965
-0.00618389
-0.00216896
0.00228596
0.00708075
0.0121117
0.0172677
0.0224201
0.0274167
0.0320705
0.036152
0.0393997
0.0415619
0.0423218
0.0410759
-0.0203628
-0.0216829
-0.0212289
-0.0196308
-0.0171074
-0.0137544
-0.00968579
-0.00501782
0.000140359
0.00568517
0.0115145
0.0175225
0.0235842
0.0295448
0.0351997
0.0402746
0.0444261
0.0472849
0.0483661
0.0468221
-0.0267915
-0.0283987
-0.0277831
-0.0257878
-0.0227225
-0.0187225
-0.0139329
-0.00849128
-0.0025172
0.00388537
0.0106223
0.0176041
0.0247218
0.0318344
0.0387342
0.0451086
0.0505163
0.0544155
0.0560349
0.0541058
-0.0347963
-0.036763
-0.0358741
-0.0333101
-0.0295217
-0.0246999
-0.0190301
-0.012676
-0.00576758
0.00159521
0.00933402
0.0173945
0.0256988
0.0341476
0.0425628
0.0506212
0.0577875
0.063283
0.065851
0.0634896
-0.0449126
-0.0472831
-0.0459016
-0.0424905
-0.0377119
-0.031828
-0.0250743
-0.017645
-0.00967895
-0.00126416
0.00755507
0.0167479
0.0263213
0.0362512
0.0464437
0.0566369
0.0662616
0.0742613
0.0785809
0.0759937
-0.058066
-0.0607173
-0.0584007
-0.0536862
-0.0475178
-0.0402354
-0.0321314
-0.0234325
-0.014282
-0.00474852
0.0051631
0.015495
0.0263344
0.0377871
0.0499292
0.0627021
0.0757002
0.0876892
0.0954154
0.0937318
-0.0760591
-0.0782373
-0.0740698
-0.0673104
-0.0591522
-0.0499918
-0.0401825
-0.0299784
-0.0195139
-0.00882217
0.00214805
0.0135152
0.0254688
0.0382853
0.0522982
0.067867
0.0852008
0.103441
0.118009
0.120917
-0.102901
-0.101751
-0.0937963
-0.0837598
-0.0726776
-0.0609424
-0.0489586
-0.0369766
-0.0250818
-0.013239
-0.00132032
0.0108874
0.0236395
0.037395
0.0527666
0.0707102
0.0927574
0.119824
0.147064
0.1639
-0.14757
-0.13319
-0.118002
-0.102645
-0.0872178
-0.0720318
-0.0574159
-0.043482
-0.030163
-0.0172894
-0.00462911
0.00811131
0.0213366
0.0355423
0.0515998
0.0710876
0.0974324
0.135139
0.181583
0.236922
-0.228114
-0.16684
-0.141084
-0.118175
-0.097653
-0.0791829
-0.062478
-0.0472019
-0.0330167
-0.0195904
-0.00659005
0.00635674
0.0197168
0.0340745
0.0506492
0.0719752
0.103861
0.156677
0.232182
0.398168
-0.435786
-0.191517
-0.132423
-0.108741
-0.089783
-0.0730454
-0.0581069
-0.0442719
-0.0311273
-0.0184509
-0.00602564
0.00641761
0.0192445
0.0332148
0.0497659
0.0726118
0.111094
0.189028
0.340662
0.697651
)
;

boundaryField
{
    movingWall
    {
        type            zeroGradient;
    }
    fixedWalls
    {
        type            zeroGradient;
    }
    frontAndBack
    {
        type            empty;
    }
}


// ************************************************************************* //
