/*--------------------------------*- C++ -*----------------------------------*\
  =========                 |
  \\      /  F ield         | OpenFOAM: The Open Source CFD Toolbox
   \\    /   O peration     | Website:  https://openfoam.org
    \\  /    A nd           | Version:  11
     \\/     M anipulation  |
\*---------------------------------------------------------------------------*/
FoamFile
{
    format      ascii;
    class       surfaceScalarField;
    location    "0.3";
    object      phi;
}
// * * * * * * * * * * * * * * * * * * * * * * * * * * * * * * * * * * * * * //

dimensions      [0 3 -1 0 0 0 0];

internalField   nonuniform List<scalar> 
760
(
-2.51071e-06
2.51071e-06
-8.85742e-06
6.34671e-06
-1.63769e-05
7.51947e-06
-2.37443e-05
7.36739e-06
-3.04577e-05
6.71344e-06
-3.62775e-05
5.81976e-06
-4.10404e-05
4.76291e-06
-4.46181e-05
3.57769e-06
-4.691e-05
2.2919e-06
-4.78435e-05
9.33526e-07
-4.73756e-05
-4.67898e-07
-4.54951e-05
-1.88048e-06
-4.2226e-05
-3.26914e-06
-3.76309e-05
-4.59507e-06
-3.18164e-05
-5.81455e-06
-2.49445e-05
-6.8719e-06
-1.72803e-05
-7.66419e-06
-9.38436e-06
-7.89593e-06
-2.6835e-06
-6.70086e-06
-2.68349e-06
-6.43498e-06
8.94569e-06
-1.87828e-05
1.86945e-05
-3.27945e-05
2.15312e-05
-4.64834e-05
2.10563e-05
-5.89659e-05
1.9196e-05
-6.97739e-05
1.66277e-05
-7.85906e-05
1.35796e-05
-8.51765e-05
1.01636e-05
-8.93514e-05
6.4669e-06
-9.09912e-05
2.57328e-06
-9.00277e-05
-1.43145e-06
-8.64508e-05
-5.45738e-06
-8.03146e-05
-9.40526e-06
-7.17444e-05
-1.31653e-05
-6.09473e-05
-1.66116e-05
-4.8238e-05
-1.95812e-05
-3.41214e-05
-2.17808e-05
-1.95666e-05
-2.24507e-05
-6.70539e-06
-1.95621e-05
-9.38888e-06
-8.14234e-06
1.7088e-05
-2.31656e-05
3.37178e-05
-3.9979e-05
3.83446e-05
-5.63175e-05
3.73948e-05
-7.11802e-05
3.40587e-05
-8.40268e-05
2.94743e-05
-9.44897e-05
2.40425e-05
-0.000102293
1.79671e-05
-0.000107233
1.14062e-05
-0.000109167
4.50818e-06
-0.00010802
-2.5787e-06
-0.000103779
-9.69885e-06
-9.65021e-05
-1.6682e-05
-8.63302e-05
-2.33372e-05
-7.34992e-05
-2.94426e-05
-5.83721e-05
-3.47084e-05
-4.15306e-05
-3.86223e-05
-2.4077e-05
-3.99042e-05
-8.45085e-06
-3.51883e-05
-1.78397e-05
-9.01614e-06
2.61042e-05
-2.56718e-05
5.03734e-05
-4.42336e-05
5.69064e-05
-6.22016e-05
5.53628e-05
-7.85013e-05
5.03584e-05
-9.25626e-05
4.35355e-05
-0.000104003
3.54825e-05
-0.000112538
2.65021e-05
-0.000117958
1.68266e-05
-0.000120118
6.66862e-06
-0.000118934
-3.76347e-06
-0.000114381
-1.42517e-05
-0.000106506
-2.4557e-05
-9.54365e-05
-3.44064e-05
-8.14043e-05
-4.34749e-05
-6.47808e-05
-5.13318e-05
-4.61841e-05
-5.7219e-05
-2.68151e-05
-5.92732e-05
-9.3983e-06
-5.2605e-05
-2.7238e-05
-9.87425e-06
3.59784e-05
-2.81837e-05
6.86829e-05
-4.85515e-05
7.72742e-05
-6.82063e-05
7.50177e-05
-8.5982e-05
6.81341e-05
-0.00010128
5.88333e-05
-0.000113711
4.79139e-05
-0.000122996
3.57869e-05
-0.000128929
2.276e-05
-0.000131366
9.1053e-06
-0.000130212
-4.91761e-06
-0.000125424
-1.90395e-05
-0.000117021
-3.29606e-05
-0.000105097
-4.63299e-05
-8.9858e-05
-5.87139e-05
-7.16684e-05
-6.95215e-05
-5.11822e-05
-7.77052e-05
-2.97311e-05
-8.07243e-05
-1.03922e-05
-7.1944e-05
-3.76302e-05
-1.09921e-05
4.69705e-05
-3.13971e-05
8.90879e-05
-5.40428e-05
9.99199e-05
-7.58136e-05
9.67885e-05
-9.54235e-05
8.7744e-05
-0.000112241
7.56513e-05
-0.000125882
6.15546e-05
-0.000136082
4.59865e-05
-0.000142652
2.93298e-05
-0.000145453
1.19068e-05
-0.000144383
-5.98798e-06
-0.000139369
-2.40536e-05
-0.000130382
-4.19468e-05
-0.000117463
-5.9249e-05
-0.000100762
-7.54151e-05
-8.06166e-05
-8.9667e-05
-5.77175e-05
-0.000100604
-3.35715e-05
-0.00010487
-1.17236e-05
-9.37919e-05
-4.93538e-05
-1.2477e-05
5.94475e-05
-3.56105e-05
0.000112221
-6.11853e-05
0.000125495
-8.56396e-05
0.000121243
-0.000107539
0.000109643
-0.000126223
9.43357e-05
-0.000141329
7.66605e-05
-0.000152631
5.72887e-05
-0.000159977
3.66759e-05
-0.000163248
1.51773e-05
-0.000162332
-6.90378e-06
-0.000157118
-2.92673e-05
-0.000147508
-5.15571e-05
-0.000133447
-7.33098e-05
-0.000114989
-9.38729e-05
-9.24049e-05
-0.000112251
-6.64072e-05
-0.000126602
-3.87233e-05
-0.000132554
-1.35297e-05
-0.000118986
-6.28835e-05
-1.44203e-05
7.38678e-05
-4.10736e-05
0.000138875
-7.03643e-05
0.000154785
-9.81524e-05
0.000149031
-0.000122827
0.000134318
-0.000143721
0.000115229
-0.000160526
9.34656e-05
-0.000173095
6.98578e-05
-0.000181345
4.4926e-05
-0.000185199
1.90306e-05
-0.000184544
-7.55825e-06
-0.000179219
-3.4593e-05
-0.00016902
-6.17554e-05
-0.000153748
-8.85818e-05
-0.000133287
-0.000114334
-0.000107765
-0.000137773
-7.78707e-05
-0.000156497
-4.55913e-05
-0.000164834
-1.59569e-05
-0.00014862
-7.88404e-05
-1.69514e-05
9.08192e-05
-4.81208e-05
0.000170044
-8.20727e-05
0.000188737
-0.00011392
0.000180878
-0.000141859
0.000162257
-0.000165258
0.000138628
-0.00018393
0.000112138
-0.00019787
8.37977e-05
-0.000207117
5.41729e-05
-0.00021167
2.35839e-05
-0.000211434
-7.79439e-06
-0.000206182
-3.98451e-05
-0.000195569
-7.23687e-05
-0.000179169
-0.000104982
-0.000156585
-0.000136917
-0.000127672
-0.000166687
-9.29812e-05
-0.000191187
-5.47742e-05
-0.000203041
-1.92329e-05
-0.000184161
-9.80733e-05
-2.02778e-05
0.000111097
-5.7261e-05
0.000207027
-9.70259e-05
0.000228502
-0.000133725
0.000217577
-0.000165375
0.000193907
-0.000191468
0.000164721
-0.000212049
0.000132719
-0.000227352
9.91009e-05
-0.000237618
6.44387e-05
-0.000242978
2.89441e-05
-0.000243381
-7.39226e-06
-0.000238529
-4.46968e-05
-0.000227888
-8.30101e-05
-0.000210704
-0.000122165
-0.000186134
-0.000161487
-0.000153529
-0.000199292
-0.000113077
-0.000231639
-6.72439e-05
-0.000248874
-2.37507e-05
-0.000227654
-0.000121824
-2.47495e-05
0.000135846
-6.93028e-05
0.000251581
-0.0001163
0.0002755
-0.000158683
0.00025996
-0.000194364
0.000229588
-0.000223135
0.000193492
-0.000245444
0.000155029
-0.000261914
0.000115571
-0.000273097
7.56221e-05
-0.000279336
3.51825e-05
-0.000280667
-6.0608e-06
-0.000276734
-4.86299e-05
-0.00026677
-9.29746e-05
-0.000249575
-0.000139359
-0.000223624
-0.000187438
-0.000187399
-0.000235518
-0.000140281
-0.000278756
-8.46586e-05
-0.000304497
-3.02372e-05
-0.000282076
-0.000152061
-3.09887e-05
0.000166835
-8.55754e-05
0.000306167
-0.00014155
0.000331474
-0.000190397
0.000308807
-0.000230148
0.00026934
-0.000261207
0.000224551
-0.000284699
0.00017852
-0.000301836
0.000132708
-0.000313632
8.7418e-05
-0.000320738
4.22885e-05
-0.000323357
-3.44184e-06
-0.000321101
-5.08867e-05
-0.000312963
-0.000101112
-0.000297191
-0.000155131
-0.00027129
-0.00021334
-0.000232319
-0.000274489
-0.00017803
-0.000333045
-0.000109972
-0.000372555
-4.01384e-05
-0.000351909
-0.0001922
-4.01603e-05
0.000206996
-0.000108331
0.000374338
-0.000175347
0.00039849
-0.000231157
0.000364617
-0.000274446
0.000312629
-0.000306763
0.000256868
-0.000330309
0.000202066
-0.000347156
0.000149556
-0.000358944
9.92053e-05
-0.000366745
5.00893e-05
-0.000371041
8.54799e-07
-0.000371473
-5.04552e-05
-0.000366881
-0.000105704
-0.000354922
-0.00016709
-0.000331868
-0.000236394
-0.00029262
-0.000313736
-0.00023188
-0.000393785
-0.000148573
-0.000455862
-5.64945e-05
-0.000443988
-0.000248694
-5.45405e-05
0.000261536
-0.000141432
0.00046123
-0.000221621
0.000478678
-0.00028406
0.000427056
-0.000329222
0.000357792
-0.000360676
0.000288321
-0.000382243
0.000223633
-0.000397153
0.000164465
-0.000407829
0.000109882
-0.000415885
5.8145e-05
-0.000422081
7.05074e-06
-0.000426414
-4.61226e-05
-0.000427671
-0.000104446
-0.000423122
-0.000171639
-0.000407766
-0.00025175
-0.000373609
-0.000347893
-0.000310159
-0.000457235
-0.000209986
-0.000556034
-8.56978e-05
-0.000568277
-0.000334392
-7.86351e-05
0.000340171
-0.000191272
0.000573867
-0.000285681
0.000573087
-0.000352187
0.000493562
-0.000395265
0.000400869
-0.000421805
0.000314862
-0.00043789
0.000239719
-0.000448142
0.000174717
-0.000455816
0.000117556
-0.000463057
6.53854e-05
-0.00047107
1.5064e-05
-0.000480265
-3.69275e-05
-0.000489876
-9.48346e-05
-0.000497351
-0.000164165
-0.000496994
-0.000252107
-0.000477792
-0.000367094
-0.000421655
-0.000513372
-0.000308201
-0.000669489
-0.000139671
-0.000736806
-0.000474063
-0.000120878
0.000461049
-0.000266435
0.000719424
-0.000370756
0.000677407
-0.000432737
0.000555544
-0.00046474
0.000432871
-0.000478589
0.000328711
-0.000483079
0.000244209
-0.000484126
0.000175765
-0.000485539
0.000118968
-0.000489749
6.95952e-05
-0.000498279
2.3594e-05
-0.000512124
-2.3082e-05
-0.000531496
-7.54631e-05
-0.000555052
-0.000140608
-0.000578062
-0.000229098
-0.000588243
-0.000356913
-0.000559407
-0.000542208
-0.000450482
-0.000778413
-0.000233072
-0.000954216
-0.000707136
-0.000193858
0.000654907
-0.000367106
0.000892672
-0.000457306
0.000767607
-0.000489913
0.000588151
-0.00049052
0.000433478
-0.00047659
0.000314781
-0.000458786
0.000226405
-0.000443109
0.000160088
-0.000432817
0.000108676
-0.000429799
6.65768e-05
-0.000435388
2.91829e-05
-0.000450797
-7.67252e-06
-0.000477701
-4.85596e-05
-0.000516934
-0.000101375
-0.000567289
-0.000178743
-0.000620125
-0.000304077
-0.00064742
-0.000514913
-0.000588154
-0.000837679
-0.000361201
-0.00118117
-0.00106834
-0.00029865
0.000953557
-0.000421612
0.00101563
-0.000417395
0.00076339
-0.000360615
0.000531371
-0.000290831
0.000363695
-0.000224998
0.000248947
-0.000170116
0.000171523
-0.000128338
0.00011831
-9.97626e-05
8.01009e-05
-8.40505e-05
5.08647e-05
-8.13096e-05
2.6442e-05
-9.20761e-05
3.09405e-06
-0.00011894
-2.16961e-05
-0.000165187
-5.51278e-05
-0.000235395
-0.000108535
-0.000331729
-0.000207744
-0.000441859
-0.000404783
-0.000507041
-0.000772498
-0.000414588
-0.00127362
-0.00148292
-0.000236959
0.00119052
-5.63628e-05
0.000835038
0.00022033
0.000486698
0.000448595
0.000303105
0.000622479
0.000189812
0.000751641
0.000119785
0.000845652
7.75129e-05
0.000912476
5.14857e-05
0.000958132
3.44451e-05
0.000986644
2.23525e-05
0.00100019
1.28924e-05
0.000998753
4.53458e-06
0.000981569
-4.51225e-06
0.000942885
-1.6443e-05
0.000872034
-3.7685e-05
0.000749096
-8.48053e-05
0.000544389
-0.000200076
0.000247129
-0.000475238
4.94769e-07
-0.00102699
-0.00148243
0.00119052
0.00202555
0.00251225
0.00281536
0.00300517
0.00312495
0.00320247
0.00325395
0.0032884
0.00331075
0.00332364
0.00332818
0.00332366
0.00330722
0.00326954
0.00318473
0.00298465
0.00250942
0.00148243
)
;

boundaryField
{
    movingWall
    {
        type            calculated;
        value           uniform 0;
    }
    fixedWalls
    {
        type            calculated;
        value           uniform 0;
    }
    frontAndBack
    {
        type            empty;
    }
}


// ************************************************************************* //
