/*--------------------------------*- C++ -*----------------------------------*\
  =========                 |
  \\      /  F ield         | OpenFOAM: The Open Source CFD Toolbox
   \\    /   O peration     | Website:  https://openfoam.org
    \\  /    A nd           | Version:  11
     \\/     M anipulation  |
\*---------------------------------------------------------------------------*/
FoamFile
{
    format      ascii;
    class       volVectorField;
    location    "0.3";
    object      U;
}
// * * * * * * * * * * * * * * * * * * * * * * * * * * * * * * * * * * * * * //

dimensions      [0 1 -1 0 0 0 0];

internalField   nonuniform List<vector> 
400
(
(-0.000151144 0.000150246 0)
(-0.00101092 0.000482893 0)
(-0.00250298 0.000588991 0)
(-0.00402998 0.00057845 0)
(-0.00544942 0.000526998 0)
(-0.00670935 0.000457443 0)
(-0.00777274 0.000375511 0)
(-0.00861072 0.000283532 0)
(-0.00920051 0.000183438 0)
(-0.00952482 7.72987e-05 0)
(-0.00957205 -3.26099e-05 0)
(-0.00933672 -0.000143794 0)
(-0.00881999 -0.000253457 0)
(-0.0080304 -0.000358518 0)
(-0.00698462 -0.000455566 0)
(-0.00570912 -0.000540352 0)
(-0.0042432 -0.000604771 0)
(-0.00264652 -0.000623035 0)
(-0.00107675 -0.000515455 0)
(-0.000164412 -0.000166354 0)
(-0.000489981 0.00100877 0)
(-0.00232355 0.00228697 0)
(-0.00512583 0.00267088 0)
(-0.00796779 0.0026159 0)
(-0.0106076 0.00238521 0)
(-0.0129504 0.00206761 0)
(-0.0149236 0.00169098 0)
(-0.0164719 0.00126846 0)
(-0.0175536 0.000810429 0)
(-0.0181385 0.000327108 0)
(-0.0182072 -0.000170888 0)
(-0.0177519 -0.000672171 0)
(-0.0167767 -0.00116429 0)
(-0.0152993 -0.00163346 0)
(-0.0133523 -0.00206402 0)
(-0.0109876 -0.0024359 0)
(-0.00828066 -0.00271249 0)
(-0.00533788 -0.00279402 0)
(-0.00242311 -0.00240349 0)
(-0.000511508 -0.00106775 0)
(-0.00063546 0.00255257 0)
(-0.00290141 0.00514692 0)
(-0.00628114 0.00588459 0)
(-0.00968135 0.00574733 0)
(-0.0128281 0.00523821 0)
(-0.0156154 0.00453596 0)
(-0.0179592 0.00370256 0)
(-0.0197953 0.00276903 0)
(-0.0210761 0.00175959 0)
(-0.0217675 0.000697228 0)
(-0.0218475 -0.000394819 0)
(-0.0213072 -0.00149199 0)
(-0.020151 -0.00256759 0)
(-0.0183982 -0.00359182 0)
(-0.0160858 -0.00453034 0)
(-0.0132731 -0.00533863 0)
(-0.0100476 -0.00593749 0)
(-0.00652851 -0.00612635 0)
(-0.00301625 -0.00537516 0)
(-0.000659861 -0.00266963 0)
(-0.00070251 0.00428952 0)
(-0.00321511 0.00834902 0)
(-0.00695655 0.00945816 0)
(-0.0107032 0.00921304 0)
(-0.0141585 0.00838691 0)
(-0.0172119 0.00725528 0)
(-0.0197753 0.00591623 0)
(-0.0217826 0.00442008 0)
(-0.0231848 0.00280577 0)
(-0.023947 0.0011095 0)
(-0.0240461 -0.000632752 0)
(-0.0234713 -0.00238338 0)
(-0.0222245 -0.00410126 0)
(-0.0203224 -0.00573991 0)
(-0.0178 -0.00724485 0)
(-0.0147168 -0.00854471 0)
(-0.0111638 -0.00951387 0)
(-0.00726749 -0.0098415 0)
(-0.00335827 -0.00871076 0)
(-0.000732333 -0.00447425 0)
(-0.000766886 0.00617237 0)
(-0.00352615 0.0118323 0)
(-0.00763852 0.013336 0)
(-0.011744 0.0129614 0)
(-0.0155175 0.0117828 0)
(-0.0188426 0.0101821 0)
(-0.0216288 0.00829655 0)
(-0.0238098 0.00619708 0)
(-0.0253381 0.00393761 0)
(-0.0261793 0.00156689 0)
(-0.0263096 -0.000867661 0)
(-0.0257153 -0.00331686 0)
(-0.0243933 -0.00572637 0)
(-0.0223541 -0.00803343 0)
(-0.0196262 -0.0101624 0)
(-0.0162654 -0.0120121 0)
(-0.0123643 -0.0134041 0)
(-0.00805913 -0.0139031 0)
(-0.00371988 -0.0123681 0)
(-0.000806959 -0.00644479 0)
(-0.000852745 0.00824734 0)
(-0.00392778 0.0156809 0)
(-0.0085082 0.0176128 0)
(-0.0130652 0.017082 0)
(-0.0172361 0.0155035 0)
(-0.0208968 0.01338 0)
(-0.0239553 0.0108937 0)
(-0.0263479 0.00813834 0)
(-0.0280306 0.00518303 0)
(-0.0289718 0.00208767 0)
(-0.0291477 -0.00109129 0)
(-0.0285405 -0.00429592 0)
(-0.0271397 -0.00746119 0)
(-0.0249449 -0.0105093 0)
(-0.021973 -0.0133426 0)
(-0.0182707 -0.0158252 0)
(-0.0139296 -0.0177155 0)
(-0.00909819 -0.0184312 0)
(-0.00420056 -0.0164572 0)
(-0.000909021 -0.00864153 0)
(-0.000968573 0.0105797 0)
(-0.00445844 0.0200069 0)
(-0.00964428 0.022406 0)
(-0.0147782 0.0216801 0)
(-0.0194489 0.0196358 0)
(-0.0235246 0.0169168 0)
(-0.0269148 0.0137592 0)
(-0.0295623 0.0102823 0)
(-0.0314315 0.00657031 0)
(-0.0324967 0.0026917 0)
(-0.0327357 -0.00129211 0)
(-0.0321262 -0.00531934 0)
(-0.0306463 -0.00931887 0)
(-0.0282788 -0.013201 0)
(-0.0250205 -0.0168456 0)
(-0.0209003 -0.0200766 0)
(-0.0160022 -0.0225741 0)
(-0.0104868 -0.0235755 0)
(-0.00485004 -0.0211236 0)
(-0.00104924 -0.0111477 0)
(-0.00112171 0.0132511 0)
(-0.00515083 0.0249513 0)
(-0.011112 0.0278583 0)
(-0.0169706 0.0268772 0)
(-0.0222547 0.0242742 0)
(-0.0268271 0.0208627 0)
(-0.0306047 0.0169433 0)
(-0.0335454 0.0126653 0)
(-0.0356291 0.00812683 0)
(-0.0368419 0.00340088 0)
(-0.0371662 -0.00145288 0)
(-0.0365746 -0.00637679 0)
(-0.0350297 -0.0113016 0)
(-0.0324886 -0.0161319 0)
(-0.0289154 -0.0207274 0)
(-0.0243055 -0.0248655 0)
(-0.0187216 -0.0281273 0)
(-0.0123307 -0.0295234 0)
(-0.00572134 -0.0265571 0)
(-0.00123922 -0.0140707 0)
(-0.0013232 0.0163643 0)
(-0.00605025 0.0306901 0)
(-0.012997 0.0341417 0)
(-0.0197524 0.0328112 0)
(-0.0257699 0.029518 0)
(-0.0309146 0.0252835 0)
(-0.0351233 0.0204883 0)
(-0.0383818 0.0153158 0)
(-0.0406977 0.00987577 0)
(-0.042078 0.00423864 0)
(-0.0425149 -0.00154789 0)
(-0.0419765 -0.00744257 0)
(-0.0404048 -0.0133911 0)
(-0.0377196 -0.0193042 0)
(-0.0338328 -0.0250281 0)
(-0.0286813 -0.0302898 0)
(-0.0222792 -0.0345453 0)
(-0.0147827 -0.0365105 0)
(-0.00689557 -0.0330076 0)
(-0.00149795 -0.0175537 0)
(-0.00159169 0.0200541 0)
(-0.00722799 0.0374485 0)
(-0.0154269 0.041464 0)
(-0.0232789 0.0396349 0)
(-0.0301507 0.0354633 0)
(-0.0359265 0.0302311 0)
(-0.0405847 0.0244184 0)
(-0.0441605 0.018246 0)
(-0.0467072 0.0118303 0)
(-0.0482663 0.00522801 0)
(-0.048848 -0.00154016 0)
(-0.0484186 -0.00846758 0)
(-0.0468945 -0.0155351 0)
(-0.0441437 -0.0226802 0)
(-0.0399993 -0.0297523 0)
(-0.0342992 -0.0364306 0)
(-0.0269603 -0.0420165 0)
(-0.018085 -0.0448356 0)
(-0.00850958 -0.0408161 0)
(-0.00185999 -0.0217979 0)
(-0.00196047 0.0245086 0)
(-0.00880163 0.0455252 0)
(-0.0185996 0.0500807 0)
(-0.0277783 0.0475136 0)
(-0.0356128 0.0421919 0)
(-0.0420418 0.0357285 0)
(-0.0471227 0.0287245 0)
(-0.0509725 0.0214393 0)
(-0.0537165 0.0139849 0)
(-0.0554489 0.00638786 0)
(-0.0562107 -0.00137921 0)
(-0.0559719 -0.00936989 0)
(-0.0546208 -0.0176295 0)
(-0.051959 -0.0261562 0)
(-0.0477064 -0.0348363 0)
(-0.0415425 -0.0433215 0)
(-0.0332003 -0.0507344 0)
(-0.0226368 -0.0548803 0)
(-0.0108091 -0.0504671 0)
(-0.00239358 -0.0271088 0)
(-0.00249272 0.0300075 0)
(-0.0109738 0.0553324 0)
(-0.02283 0.0603081 0)
(-0.0335898 0.0566156 0)
(-0.0424552 0.0497494 0)
(-0.0494888 0.0417439 0)
(-0.0548884 0.0333412 0)
(-0.0589006 0.0248312 0)
(-0.0617566 0.0163023 0)
(-0.0636275 0.00772591 0)
(-0.0646022 -0.00100061 0)
(-0.0646653 -0.0100245 0)
(-0.0636804 -0.0194951 0)
(-0.0613733 -0.0295233 0)
(-0.057315 -0.0400939 0)
(-0.0509455 -0.0508891 0)
(-0.0416723 -0.0608577 0)
(-0.029117 -0.0671249 0)
(-0.0142632 -0.0626758 0)
(-0.00324519 -0.0339899 0)
(-0.00331563 0.036999 0)
(-0.0141089 0.0674567 0)
(-0.0286303 0.072532 0)
(-0.0412192 0.0670842 0)
(-0.0510856 0.0581036 0)
(-0.0585461 0.0481495 0)
(-0.0640345 0.0381114 0)
(-0.0679919 0.0282828 0)
(-0.0707966 0.018694 0)
(-0.0727231 0.0092264 0)
(-0.0739292 -0.000333733 0)
(-0.0744315 -0.0102559 0)
(-0.0740852 -0.020851 0)
(-0.0725489 -0.0324131 0)
(-0.0692218 -0.0451286 0)
(-0.0632148 -0.0588382 0)
(-0.0533964 -0.0724078 0)
(-0.0386919 -0.082136 0)
(-0.0198056 -0.0785347 0)
(-0.00474795 -0.0433582 0)
(-0.00469727 0.0462546 0)
(-0.0188823 0.0827514 0)
(-0.0368318 0.0871941 0)
(-0.0513944 0.0789717 0)
(-0.0620138 0.0670669 0)
(-0.0694907 0.0546539 0)
(-0.0746352 0.0427345 0)
(-0.0781613 0.0315435 0)
(-0.0806358 0.0209946 0)
(-0.0824602 0.0108335 0)
(-0.0838714 0.000700782 0)
(-0.0849499 -0.00983662 0)
(-0.0855864 -0.0212942 0)
(-0.0854074 -0.0342368 0)
(-0.0836691 -0.0492062 0)
(-0.0790983 -0.0664471 0)
(-0.0697568 -0.0850293 0)
(-0.0532591 -0.100446 0)
(-0.0292723 -0.0997334 0)
(-0.00765433 -0.0570225 0)
(-0.00720826 0.0592065 0)
(-0.0265409 0.10246 0)
(-0.0486925 0.104704 0)
(-0.0649765 0.0920832 0)
(-0.0756144 0.0761482 0)
(-0.0822655 0.0606862 0)
(-0.086295 0.0466844 0)
(-0.0887643 0.0341933 0)
(-0.0904482 0.0229168 0)
(-0.0918743 0.0124082 0)
(-0.0933706 0.0021329 0)
(-0.0951021 -0.00853089 0)
(-0.0970497 -0.0203228 0)
(-0.0989177 -0.0341571 0)
(-0.0999492 -0.0511173 0)
(-0.0985722 -0.0722463 0)
(-0.0918411 -0.0974683 0)
(-0.0752075 -0.122019 0)
(-0.0457774 -0.128544 0)
(-0.0134581 -0.0784683 0)
(-0.0119943 0.0786347 0)
(-0.0391709 0.128243 0)
(-0.0655268 0.125083 0)
(-0.0819881 0.105568 0)
(-0.0907609 0.0842135 0)
(-0.0948714 0.0651512 0)
(-0.0963972 0.0490441 0)
(-0.096757 0.0355287 0)
(-0.096884 0.023962 0)
(-0.097373 0.0136408 0)
(-0.0986033 0.00384027 0)
(-0.100825 -0.006228 0)
(-0.104174 -0.0174965 0)
(-0.108588 -0.0312454 0)
(-0.113577 -0.0492424 0)
(-0.117657 -0.0738156 0)
(-0.117066 -0.106874 0)
(-0.104445 -0.145012 0)
(-0.0722056 -0.166738 0)
(-0.0241082 -0.113821 0)
(-0.0209021 0.109513 0)
(-0.0589076 0.160809 0)
(-0.0854702 0.146241 0)
(-0.0966588 0.116497 0)
(-0.0989348 0.0884946 0)
(-0.0969968 0.065802 0)
(-0.0935022 0.0481274 0)
(-0.0899886 0.0343301 0)
(-0.0873059 0.0232549 0)
(-0.0859233 0.0139018 0)
(-0.0861377 0.00538564 0)
(-0.088195 -0.00317879 0)
(-0.0923925 -0.012811 0)
(-0.0990264 -0.0250238 0)
(-0.108222 -0.0422501 0)
(-0.119356 -0.068484 0)
(-0.128926 -0.109062 0)
(-0.127596 -0.165023 0)
(-0.102965 -0.214008 0)
(-0.0386151 -0.174555 0)
(-0.0344199 0.159509 0)
(-0.0800678 0.193599 0)
(-0.0877283 0.157958 0)
(-0.0788489 0.115961 0)
(-0.0650608 0.0824821 0)
(-0.0510896 0.0582172 0)
(-0.0389033 0.0410238 0)
(-0.0292415 0.028669 0)
(-0.0222417 0.0194487 0)
(-0.0178397 0.0121524 0)
(-0.0159903 0.00587227 0)
(-0.0167498 -0.000201194 0)
(-0.0204315 -0.00703971 0)
(-0.0276188 -0.0160141 0)
(-0.0392517 -0.0298734 0)
(-0.0564453 -0.0541099 0)
(-0.0781353 -0.0984191 0)
(-0.097086 -0.172815 0)
(-0.10637 -0.262643 0)
(-0.0428857 -0.272054 0)
(-0.0313765 0.248755 0)
(-0.0458699 0.206745 0)
(0.0178901 0.135272 0)
(0.069928 0.0881069 0)
(0.10954 0.0574251 0)
(0.139239 0.0376963 0)
(0.161114 0.0252012 0)
(0.17686 0.0171105 0)
(0.187868 0.0115787 0)
(0.195135 0.00751893 0)
(0.199265 0.00426078 0)
(0.200471 0.00130988 0)
(0.198671 -0.00188343 0)
(0.193252 -0.00617805 0)
(0.182567 -0.0135168 0)
(0.163402 -0.0287704 0)
(0.131616 -0.0633273 0)
(0.0861171 -0.138965 0)
(-0.00138968 -0.265393 0)
(0.0133213 -0.340899 0)
(0.244198 0.160587 0)
(0.310121 0.119136 0)
(0.453126 0.0715594 0)
(0.53872 0.0426319 0)
(0.586416 0.0252932 0)
(0.615397 0.0149978 0)
(0.634148 0.00909234 0)
(0.646555 0.00572782 0)
(0.65485 0.00372975 0)
(0.66035 0.00245022 0)
(0.663775 0.00154632 0)
(0.665461 0.000820488 0)
(0.665436 0.000169228 0)
(0.663323 -0.000656029 0)
(0.657866 -0.00209519 0)
(0.645779 -0.00542455 0)
(0.617901 -0.0139313 0)
(0.561271 -0.0380825 0)
(0.397147 -0.102981 0)
(0.295818 -0.166734 0)
)
;

boundaryField
{
    movingWall
    {
        type            fixedValue;
        value           uniform (1 0 0);
    }
    fixedWalls
    {
        type            noSlip;
    }
    frontAndBack
    {
        type            empty;
    }
}


// ************************************************************************* //
